Position data for Nickel-Sulfur system 
 
 824     atoms
 4     atom types
 0.000612 17.944855 xlo xhi 
 0.011609 71.781586 ylo yhi 
 -0.000368 7.039159 zlo zhi 
 
 Masses 
 
 1 58.71
 2 32.06
 3 58.71
 4 58.71
 
 Atoms 
 
517 1 6.645300 0.352984 5.280030
105 1 6.645300 0.352984 1.760270
723 1 15.617400 0.352984 5.280030
311 1 15.617400 0.352984 1.760270
516 1 4.919980 0.698230 3.520150
104 1 4.919980 0.698230 0.000384
722 1 13.892100 0.698230 3.520150
310 1 13.892100 0.698230 0.000384
414 1 3.194950 1.042990 5.280030
2 1 3.194950 1.042990 1.760270
620 1 12.167100 1.042990 5.280030
208 1 12.167100 1.042990 1.760270
413 1 1.469870 1.387680 3.520150
1 1 1.469870 1.387680 0.000384
619 1 10.442000 1.387680 3.520150
207 1 10.442000 1.387680 0.000384
624 1 8.716480 1.732880 5.280030
212 1 8.716480 1.732880 1.760270
418 1 17.688600 1.732880 5.280030
6 1 17.688600 1.732880 1.760270
518 1 6.990620 2.078730 3.520150
106 1 6.990620 2.078730 0.000384
724 1 15.962700 2.078730 3.520150
312 1 15.962700 2.078730 0.000384
521 1 5.264910 2.424660 5.280030
109 1 5.264910 2.424660 1.760270
727 1 14.237000 2.424660 5.280030
315 1 14.237000 2.424660 1.760270
415 1 3.539790 2.769810 3.520150
3 1 3.539790 2.769810 0.000384
621 1 12.511900 2.769810 3.520150
209 1 12.511900 2.769810 0.000384
416 1 1.815090 3.114040 5.280030
4 1 1.815090 3.114040 1.760270
622 1 10.787200 3.114040 5.280030
210 1 10.787200 3.114040 1.760270
419 1 0.090106 3.458280 3.520150
7 1 0.090106 3.458280 0.000384
625 1 9.062230 3.458280 3.520150
213 1 9.062230 3.458280 0.000384
520 1 7.336430 3.803750 5.280030
108 1 7.336430 3.803750 1.760270
726 1 16.308600 3.803750 5.280030
314 1 16.308600 3.803750 1.760270
519 1 5.610110 4.150460 3.520150
107 1 5.610110 4.150460 0.000384
725 1 14.582200 4.150460 3.520150
313 1 14.582200 4.150460 0.000384
526 1 3.884210 4.496940 5.280030
114 1 3.884210 4.496940 1.760270
732 1 12.856300 4.496940 5.280030
320 1 12.856300 4.496940 1.760270
420 1 2.159490 4.841540 3.520150
8 1 2.159490 4.841540 0.000384
626 1 11.131600 4.841540 3.520150
214 1 11.131600 4.841540 0.000384
423 1 0.435563 5.184520 5.280030
11 1 0.435563 5.184520 1.760270
629 1 9.407690 5.184520 5.280030
217 1 9.407690 5.184520 1.760270
522 1 7.683060 5.528190 3.520150
110 1 7.683060 5.528190 0.000384
728 1 16.655200 5.528190 3.520150
316 1 16.655200 5.528190 0.000384
525 1 5.956520 5.874520 5.280030
113 1 5.956520 5.874520 1.760270
731 1 14.928600 5.874520 5.280030
319 1 14.928600 5.874520 1.760270
527 1 4.228780 6.222840 3.520150
115 1 4.228780 6.222840 0.000384
733 1 13.200900 6.222840 3.520150
321 1 13.200900 6.222840 0.000384
422 1 2.502460 6.570200 5.280030
10 1 2.502460 6.570200 1.760270
628 1 11.474600 6.570200 5.280030
216 1 11.474600 6.570200 1.760270
424 1 0.779532 6.913610 3.520150
12 1 0.779532 6.913610 0.000384
630 1 9.751650 6.913610 3.520150
218 1 9.751650 6.913610 0.000384
524 1 8.029850 7.254090 5.280030
112 1 8.029850 7.254090 1.760270
730 1 17.002000 7.254090 5.280030
318 1 17.002000 7.254090 1.760270
523 1 6.304790 7.596350 3.520150
111 1 6.304790 7.596350 0.000384
729 1 15.276900 7.596350 3.520150
317 1 15.276900 7.596350 0.000384
528 1 4.575070 7.944460 5.280030
116 1 4.575070 7.944460 1.760270
734 1 13.547200 7.944460 5.280030
322 1 13.547200 7.944460 1.760270
421 1 2.845360 8.297310 3.520150
9 1 2.845360 8.297310 0.000384
627 1 11.817500 8.297310 3.520150
215 1 11.817500 8.297310 0.000384
425 1 1.121000 8.647270 5.280030
13 1 1.121000 8.647270 1.760270
631 1 10.093100 8.647270 5.280030
219 1 10.093100 8.647270 1.760270
634 1 8.374060 8.985790 3.520150
222 1 8.374060 8.985790 0.000384
428 1 17.346200 8.985790 3.520150
16 1 17.346200 8.985790 0.000384
530 1 6.652330 9.318510 5.280030
118 1 6.652330 9.318510 1.760270
736 1 15.624500 9.318510 5.280030
324 1 15.624500 9.318510 1.760270
532 1 4.925070 9.659920 3.520150
120 1 4.925070 9.659920 0.000384
738 1 13.897200 9.659920 3.520150
326 1 13.897200 9.659920 0.000384
427 1 3.194030 10.017700 5.280030
15 1 3.194030 10.017700 1.760270
633 1 12.166200 10.017700 5.280030
221 1 12.166200 10.017700 1.760270
429 1 1.463470 10.380400 3.520150
17 1 1.463470 10.380400 0.000384
635 1 10.435600 10.380400 3.520150
223 1 10.435600 10.380400 0.000384
638 1 8.708220 10.727000 5.280030
226 1 8.708220 10.727000 1.760270
432 1 17.680300 10.727000 5.280030
20 1 17.680300 10.727000 1.760270
529 1 6.991210 11.048500 3.520150
117 1 6.991210 11.048500 0.000384
735 1 15.963300 11.048500 3.520150
323 1 15.963300 11.048500 0.000384
533 1 5.277990 11.377900 5.280030
121 1 5.277990 11.377900 1.760270
739 1 14.250100 11.377900 5.280030
327 1 14.250100 11.377900 1.760270
426 1 3.562260 11.729800 3.520150
14 1 3.562260 11.729800 0.000384
632 1 12.534400 11.729800 3.520150
220 1 12.534400 11.729800 0.000384
431 1 1.814250 12.094700 5.280030
19 1 1.814250 12.094700 1.760270
637 1 10.786400 12.094700 5.280030
225 1 10.786400 12.094700 1.760270
430 1 0.054694 12.461700 3.520150
18 1 0.054694 12.461700 0.000384
636 1 9.026820 12.461700 3.520150
224 1 9.026820 12.461700 0.000384
531 1 7.303540 12.810700 5.280030
119 1 7.303540 12.810700 1.760270
737 1 16.275700 12.810700 5.280030
325 1 16.275700 12.810700 1.760270
534 1 5.644550 13.124400 3.520150
122 1 5.644550 13.124400 0.000384
740 1 14.616700 13.124400 3.520150
328 1 14.616700 13.124400 0.000384
539 1 3.948190 13.451300 5.280030
127 1 3.948190 13.451300 1.760270
745 1 12.920300 13.451300 5.280030
333 1 12.920300 13.451300 1.760270
433 1 2.181090 13.759900 3.520150
21 1 2.181090 13.759900 0.000384
639 1 11.153200 13.759900 3.520150
227 1 11.153200 13.759900 0.000384
436 1 0.356460 14.141500 5.280030
24 1 0.356460 14.141500 1.760270
642 1 9.328580 14.141500 5.280030
230 1 9.328580 14.141500 1.760270
535 1 7.611650 14.634700 3.520150
123 1 7.611650 14.634700 0.000384
741 1 16.583800 14.634700 3.520150
329 1 16.583800 14.634700 0.000384
538 1 6.028200 15.005200 5.280030
126 1 6.028200 15.005200 1.760270
744 1 15.000300 15.005200 5.280030
332 1 15.000300 15.005200 1.760270
537 1 4.331990 15.148400 3.520150
125 1 4.331990 15.148400 0.000384
743 1 13.304100 15.148400 3.520150
331 1 13.304100 15.148400 0.000384
435 1 2.472960 15.394600 5.280030
23 1 2.472960 15.394600 1.760270
641 1 11.445100 15.394600 5.280030
229 1 11.445100 15.394600 1.760270
434 1 0.716157 15.734700 3.520150
22 1 0.716157 15.734700 0.000384
640 1 9.688280 15.734700 3.520150
228 1 9.688280 15.734700 0.000384
536 1 8.119750 16.776300 5.280030
124 1 8.119750 16.776300 1.760270
742 1 17.091900 16.776300 5.280030
330 1 17.091900 16.776300 1.760270
437 1 2.782900 16.915500 3.520150
25 1 2.782900 16.915500 0.000384
643 1 11.755000 16.915500 3.520150
231 1 11.755000 16.915500 0.000384
541 1 4.497840 16.916700 5.280030
129 1 4.497840 16.916700 1.760270
747 1 13.470000 16.916700 5.280030
335 1 13.470000 16.916700 1.760270
540 1 6.295580 16.920600 3.520150
128 1 6.295580 16.920600 0.000384
746 1 15.267700 16.920600 3.520150
334 1 15.267700 16.920600 0.000384
441 1 0.666716 18.054900 3.520150
29 1 0.666716 18.054900 0.000384
647 1 9.638840 18.054900 3.520150
235 1 9.638840 18.054900 0.000384
438 1 2.446350 18.422700 5.280030
26 1 2.446350 18.422700 1.760270
644 1 11.418500 18.422700 5.280030
232 1 11.418500 18.422700 1.760270
443 1 4.318510 18.685000 3.520150
31 1 4.318510 18.685000 0.000384
649 1 13.290600 18.685000 3.520150
237 1 13.290600 18.685000 0.000384
542 1 6.015030 18.831300 5.280030
130 1 6.015030 18.831300 1.760270
748 1 14.987200 18.831300 5.280030
336 1 14.987200 18.831300 1.760270
546 1 7.594100 19.217700 3.520150
134 1 7.594100 19.217700 0.000384
752 1 16.566200 19.217700 3.520150
340 1 16.566200 19.217700 0.000384
750 1 0.340746 19.683100 5.280030
338 1 0.340746 19.683100 1.760270
544 1 9.312870 19.683100 5.280030
132 1 9.312870 19.683100 1.760270
442 1 2.151430 20.052800 3.520150
30 1 2.151430 20.052800 0.000384
648 1 11.123600 20.052800 3.520150
236 1 11.123600 20.052800 0.000384
440 1 3.922780 20.372400 5.280030
28 1 3.922780 20.372400 1.760270
646 1 12.894900 20.372400 5.280030
234 1 12.894900 20.372400 1.760270
545 1 5.621960 20.711300 3.520150
133 1 5.621960 20.711300 0.000384
751 1 14.594100 20.711300 3.520150
339 1 14.594100 20.711300 0.000384
543 1 7.285820 21.026400 5.280030
131 1 7.285820 21.026400 1.760270
749 1 16.257900 21.026400 5.280030
337 1 16.257900 21.026400 1.760270
753 1 0.036723 21.371100 3.520150
341 1 0.036723 21.371100 0.000384
547 1 9.008840 21.371100 3.520150
135 1 9.008840 21.371100 0.000384
439 1 1.792350 21.729300 5.280030
27 1 1.792350 21.729300 1.760270
645 1 10.764500 21.729300 5.280030
233 1 10.764500 21.729300 1.760270
444 1 3.535430 22.092600 3.520150
32 1 3.535430 22.092600 0.000384
650 1 12.507600 22.092600 3.520150
238 1 12.507600 22.092600 0.000384
548 1 5.253350 22.450100 5.280030
136 1 5.253350 22.450100 1.760270
754 1 14.225500 22.450100 5.280030
342 1 14.225500 22.450100 1.760270
552 1 6.970360 22.783100 3.520150
140 1 6.970360 22.783100 0.000384
758 1 15.942500 22.783100 3.520150
346 1 15.942500 22.783100 0.000384
550 1 8.688840 23.104900 5.280030
138 1 8.688840 23.104900 1.760270
756 1 17.661000 23.104900 5.280030
344 1 17.661000 23.104900 1.760270
448 1 1.442550 23.448700 3.520150
36 1 1.442550 23.448700 0.000384
654 1 10.414700 23.448700 3.520150
242 1 10.414700 23.448700 0.000384
446 1 3.170710 23.808800 5.280030
34 1 3.170710 23.808800 1.760270
652 1 12.142800 23.808800 5.280030
240 1 12.142800 23.808800 1.760270
449 1 4.900970 24.166200 3.520150
37 1 4.900970 24.166200 0.000384
655 1 13.873100 24.166200 3.520150
243 1 13.873100 24.166200 0.000384
549 1 6.629650 24.509800 5.280030
137 1 6.629650 24.509800 1.760270
755 1 15.601800 24.509800 5.280030
343 1 15.601800 24.509800 1.760270
553 1 8.352740 24.844200 3.520150
141 1 8.352740 24.844200 0.000384
759 1 17.324900 24.844200 3.520150
347 1 17.324900 24.844200 0.000384
445 1 1.099850 25.182700 5.280030
33 1 1.099850 25.182700 1.760270
651 1 10.072000 25.182700 5.280030
239 1 10.072000 25.182700 1.760270
450 1 2.823420 25.531200 3.520150
38 1 2.823420 25.531200 0.000384
656 1 11.795500 25.531200 3.520150
244 1 11.795500 25.531200 0.000384
447 1 4.552320 25.882800 5.280030
35 1 4.552320 25.882800 1.760270
653 1 13.524400 25.882800 5.280030
241 1 13.524400 25.882800 1.760270
554 1 6.281860 26.231100 3.520150
142 1 6.281860 26.231100 0.000384
760 1 15.254000 26.231100 3.520150
348 1 15.254000 26.231100 0.000384
551 1 8.007490 26.574500 5.280030
139 1 8.007490 26.574500 1.760270
757 1 16.979600 26.574500 5.280030
345 1 16.979600 26.574500 1.760270
454 1 0.757736 26.915700 3.520150
42 1 0.757736 26.915700 0.000384
660 1 9.729860 26.915700 3.520150
248 1 9.729860 26.915700 0.000384
451 1 2.480730 27.258900 5.280030
39 1 2.480730 27.258900 1.760270
657 1 11.452800 27.258900 5.280030
245 1 11.452800 27.258900 1.760270
455 1 4.206650 27.605500 3.520150
43 1 4.206650 27.605500 0.000384
661 1 13.178800 27.605500 3.520150
249 1 13.178800 27.605500 0.000384
555 1 5.933990 27.953300 5.280030
143 1 5.933990 27.953300 1.760270
761 1 14.906100 27.953300 5.280030
349 1 14.906100 27.953300 1.760270
558 1 7.660530 28.299900 3.520150
146 1 7.660530 28.299900 0.000384
764 1 16.632600 28.299900 3.520150
352 1 16.632600 28.299900 0.000384
763 1 0.413341 28.644100 5.280030
351 1 0.413341 28.644100 1.760270
557 1 9.385460 28.644100 5.280030
145 1 9.385460 28.644100 1.760270
456 1 2.137520 28.987300 3.520150
44 1 2.137520 28.987300 0.000384
662 1 11.109600 28.987300 3.520150
250 1 11.109600 28.987300 0.000384
453 1 3.862190 29.331700 5.280030
41 1 3.862190 29.331700 1.760270
659 1 12.834300 29.331700 5.280030
247 1 12.834300 29.331700 1.760270
559 1 5.587880 29.677900 3.520150
147 1 5.587880 29.677900 0.000384
765 1 14.560000 29.677900 3.520150
353 1 14.560000 29.677900 0.000384
556 1 7.314050 30.024400 5.280030
144 1 7.314050 30.024400 1.760270
762 1 16.286200 30.024400 5.280030
350 1 16.286200 30.024400 1.760270
766 1 0.067774 30.370100 3.520150
354 1 0.067774 30.370100 0.000384
560 1 9.039900 30.370100 3.520150
148 1 9.039900 30.370100 0.000384
452 1 1.792910 30.714500 5.280030
40 1 1.792910 30.714500 1.760270
658 1 10.765000 30.714500 5.280030
246 1 10.765000 30.714500 1.760270
457 1 3.517690 31.058800 3.520150
45 1 3.517690 31.058800 0.000384
663 1 12.489800 31.058800 3.520150
251 1 12.489800 31.058800 0.000384
561 1 5.242760 31.403900 5.280030
149 1 5.242760 31.403900 1.760270
767 1 14.214900 31.403900 5.280030
355 1 14.214900 31.403900 1.760270
565 1 6.968370 31.749600 3.520150
153 1 6.968370 31.749600 0.000384
771 1 15.940500 31.749600 3.520150
359 1 15.940500 31.749600 0.000384
563 1 8.694190 32.095500 5.280030
151 1 8.694190 32.095500 1.760270
769 1 17.666300 32.095500 5.280030
357 1 17.666300 32.095500 1.760270
461 1 1.447620 32.440800 3.520150
49 1 1.447620 32.440800 0.000384
667 1 10.419700 32.440800 3.520150
255 1 10.419700 32.440800 0.000384
459 1 3.172770 32.785600 5.280030
47 1 3.172770 32.785600 1.760270
665 1 12.144900 32.785600 5.280030
253 1 12.144900 32.785600 1.760270
463 1 4.897810 33.130300 3.520150
51 1 4.897810 33.130300 0.000384
669 1 13.869900 33.130300 3.520150
257 1 13.869900 33.130300 0.000384
562 1 6.623100 33.475500 5.280030
150 1 6.623100 33.475500 1.760270
768 1 15.595200 33.475500 5.280030
356 1 15.595200 33.475500 1.760270
567 1 8.348690 33.821000 3.520150
155 1 8.348690 33.821000 0.000384
773 1 17.320800 33.821000 3.520150
361 1 17.320800 33.821000 0.000384
458 1 1.102210 34.166600 5.280030
46 1 1.102210 34.166600 1.760270
664 1 10.074300 34.166600 5.280030
252 1 10.074300 34.166600 1.760270
462 1 2.827620 34.511900 3.520150
50 1 2.827620 34.511900 0.000384
668 1 11.799700 34.511900 3.520150
256 1 11.799700 34.511900 0.000384
460 2 4.552780 34.856800 5.280030
48 2 4.552780 34.856800 1.760270
666 2 13.524900 34.856800 5.280030
254 2 13.524900 34.856800 1.760270
566 1 6.277910 35.201600 3.520150
154 1 6.277910 35.201600 0.000384
772 1 15.250000 35.201600 3.520150
360 1 15.250000 35.201600 0.000384
564 1 8.003290 35.546800 5.280030
152 1 8.003290 35.546800 1.760270
770 1 16.975400 35.546800 5.280030
358 1 16.975400 35.546800 1.760270
467 1 0.756801 35.892300 3.520150
55 1 0.756801 35.892300 0.000384
673 1 9.728920 35.892300 3.520150
261 1 9.728920 35.892300 0.000384
464 1 2.482430 36.238000 5.280030
52 1 2.482430 36.238000 1.760270
670 1 11.454600 36.238000 5.280030
258 1 11.454600 36.238000 1.760270
469 1 4.207760 36.583200 3.520150
57 1 4.207760 36.583200 0.000384
675 1 13.179900 36.583200 3.520150
263 1 13.179900 36.583200 0.000384
568 1 5.932790 36.928000 5.280030
156 1 5.932790 36.928000 1.760270
774 1 14.904900 36.928000 5.280030
362 1 14.904900 36.928000 1.760270
572 1 7.657870 37.272700 3.520150
160 1 7.657870 37.272700 0.000384
778 1 16.630000 37.272700 3.520150
366 1 16.630000 37.272700 0.000384
776 1 0.411255 37.617900 5.280030
364 1 0.411255 37.617900 1.760270
570 1 9.383380 37.617900 5.280030
158 1 9.383380 37.617900 1.760270
468 1 2.137120 37.963700 3.520150
56 1 2.137120 37.963700 0.000384
674 1 11.109200 37.963700 3.520150
262 1 11.109200 37.963700 0.000384
466 1 3.862830 38.309600 5.280030
54 1 3.862830 38.309600 1.760270
672 1 12.835000 38.309600 5.280030
260 1 12.835000 38.309600 1.760270
571 1 5.587950 38.654800 3.520150
159 1 5.587950 38.654800 0.000384
777 1 14.560100 38.654800 3.520150
365 1 14.560100 38.654800 0.000384
569 1 7.312650 38.999000 5.280030
157 1 7.312650 38.999000 1.760270
775 1 16.284800 38.999000 5.280030
363 1 16.284800 38.999000 1.760270
779 1 0.065509 39.343300 3.520150
367 1 0.065509 39.343300 0.000384
573 1 9.037630 39.343300 3.520150
161 1 9.037630 39.343300 0.000384
465 1 1.791300 39.688700 5.280030
53 1 1.791300 39.688700 1.760270
671 1 10.763400 39.688700 5.280030
259 1 10.763400 39.688700 1.760270
470 1 3.517620 40.035400 3.520150
58 1 3.517620 40.035400 0.000384
676 1 12.489700 40.035400 3.520150
264 1 12.489700 40.035400 0.000384
574 1 5.243530 40.381900 5.280030
162 1 5.243530 40.381900 1.760270
780 1 14.215700 40.381900 5.280030
368 1 14.215700 40.381900 1.760270
578 1 6.968250 40.726500 3.520150
166 1 6.968250 40.726500 0.000384
784 1 15.940400 40.726500 3.520150
372 1 15.940400 40.726500 0.000384
576 1 8.692170 41.069500 5.280030
164 1 8.692170 41.069500 1.760270
782 1 17.664300 41.069500 5.280030
370 1 17.664300 41.069500 1.760270
474 1 1.444670 41.413200 3.520150
62 1 1.444670 41.413200 0.000384
680 1 10.416800 41.413200 3.520150
268 1 10.416800 41.413200 0.000384
472 1 3.171220 41.759500 5.280030
60 1 3.171220 41.759500 1.760270
678 1 12.143300 41.759500 5.280030
266 1 12.143300 41.759500 1.760270
475 1 4.898950 42.107800 3.520150
63 1 4.898950 42.107800 0.000384
681 1 13.871100 42.107800 3.520150
269 1 13.871100 42.107800 0.000384
575 1 6.625270 42.455200 5.280030
163 1 6.625270 42.455200 1.760270
781 1 15.597400 42.455200 5.280030
369 1 15.597400 42.455200 1.760270
579 1 8.348200 42.798600 3.520150
167 1 8.348200 42.798600 0.000384
785 1 17.320300 42.798600 3.520150
373 1 17.320300 42.798600 0.000384
471 1 1.097880 43.139100 5.280030
59 1 1.097880 43.139100 1.760270
677 1 10.070000 43.139100 5.280030
265 1 10.070000 43.139100 1.760270
476 1 2.822940 43.481300 3.520150
64 1 2.822940 43.481300 0.000384
682 1 11.795100 43.481300 3.520150
270 1 11.795100 43.481300 0.000384
473 1 4.552660 43.829400 5.280030
61 1 4.552660 43.829400 1.760270
679 1 13.524800 43.829400 5.280030
267 1 13.524800 43.829400 1.760270
580 1 6.282380 44.182300 3.520150
168 1 6.282380 44.182300 0.000384
786 1 15.254500 44.182300 3.520150
374 1 15.254500 44.182300 0.000384
577 1 8.006740 44.532300 5.280030
165 1 8.006740 44.532300 1.760270
783 1 16.978900 44.532300 5.280030
371 1 16.978900 44.532300 1.760270
480 1 0.753674 44.870800 3.520150
68 1 0.753674 44.870800 0.000384
686 1 9.725800 44.870800 3.520150
274 1 9.725800 44.870800 0.000384
477 1 2.475400 45.203500 5.280030
65 1 2.475400 45.203500 1.760270
683 1 11.447500 45.203500 5.280030
271 1 11.447500 45.203500 1.760270
481 1 4.202670 45.544900 3.520150
69 1 4.202670 45.544900 0.000384
687 1 13.174800 45.544900 3.520150
275 1 13.174800 45.544900 0.000384
581 1 5.933700 45.902700 5.280030
169 1 5.933700 45.902700 1.760270
787 1 14.905800 45.902700 5.280030
375 1 14.905800 45.902700 1.760270
584 1 7.664270 46.265400 3.520150
172 1 7.664270 46.265400 0.000384
790 1 16.636400 46.265400 3.520150
378 1 16.636400 46.265400 0.000384
789 1 0.419519 46.612000 5.280030
377 1 0.419519 46.612000 1.760270
583 1 9.391640 46.612000 5.280030
171 1 9.391640 46.612000 1.760270
482 1 2.136520 46.933500 3.520150
70 1 2.136520 46.933500 0.000384
688 1 11.108600 46.933500 3.520150
276 1 11.108600 46.933500 0.000384
479 1 3.849740 47.262900 5.280030
67 1 3.849740 47.262900 1.760270
685 1 12.821900 47.262900 5.280030
273 1 12.821900 47.262900 1.760270
585 1 5.565470 47.614800 3.520150
173 1 5.565470 47.614800 0.000384
791 1 14.537600 47.614800 3.520150
379 1 14.537600 47.614800 0.000384
582 1 7.313490 47.979700 5.280030
170 1 7.313490 47.979700 1.760270
788 1 16.285600 47.979700 5.280030
376 1 16.285600 47.979700 1.760270
792 1 0.100921 48.346700 3.520150
380 1 0.100921 48.346700 0.000384
586 1 9.073040 48.346700 3.520150
174 1 9.073040 48.346700 0.000384
478 1 1.824200 48.695700 5.280030
66 1 1.824200 48.695700 1.760270
684 1 10.796300 48.695700 5.280030
272 1 10.796300 48.695700 1.760270
483 1 3.483180 49.009400 3.520150
71 1 3.483180 49.009400 0.000384
689 1 12.455300 49.009400 3.520150
277 1 12.455300 49.009400 0.000384
587 1 5.179550 49.336300 5.280030
175 1 5.179550 49.336300 1.760270
793 1 14.151700 49.336300 5.280030
381 1 14.151700 49.336300 1.760270
591 1 6.946650 49.644900 3.520150
179 1 6.946650 49.644900 0.000384
797 1 15.918800 49.644900 3.520150
385 1 15.918800 49.644900 0.000384
589 1 8.771280 50.026500 5.280030
177 1 8.771280 50.026500 1.760270
795 1 17.743400 50.026500 5.280030
383 1 17.743400 50.026500 1.760270
487 1 1.516080 50.519700 3.520150
75 1 1.516080 50.519700 0.000384
693 1 10.488200 50.519700 3.520150
281 1 10.488200 50.519700 0.000384
485 1 3.099540 50.890200 5.280030
73 1 3.099540 50.890200 1.760270
691 1 12.071700 50.890200 5.280030
279 1 12.071700 50.890200 1.760270
489 1 4.795740 51.033400 3.520150
77 1 4.795740 51.033400 0.000384
695 1 13.767900 51.033400 3.520150
283 1 13.767900 51.033400 0.000384
588 1 6.654780 51.279600 5.280030
176 1 6.654780 51.279600 1.760270
794 1 15.626900 51.279600 5.280030
382 1 15.626900 51.279600 1.760270
590 1 8.411580 51.619700 3.520150
178 1 8.411580 51.619700 0.000384
796 1 17.383700 51.619700 3.520150
384 1 17.383700 51.619700 0.000384
484 1 1.007980 52.661300 5.280030
72 1 1.007980 52.661300 1.760270
690 1 9.980100 52.661300 5.280030
278 1 9.980100 52.661300 1.760270
592 1 6.344830 52.800500 3.520150
180 1 6.344830 52.800500 0.000384
798 1 15.317000 52.800500 3.520150
386 1 15.317000 52.800500 0.000384
486 1 4.629890 52.801700 5.280030
74 1 4.629890 52.801700 1.760270
692 1 13.602000 52.801700 5.280030
280 1 13.602000 52.801700 1.760270
488 1 2.832150 52.805500 3.520150
76 1 2.832150 52.805500 0.000384
694 1 11.804300 52.805500 3.520150
282 1 11.804300 52.805500 0.000384
700 1 8.461020 53.939900 3.520150
288 1 8.461020 53.939900 0.000384
494 1 17.433100 53.939900 3.520150
82 1 17.433100 53.939900 0.000384
594 1 6.681390 54.307700 5.280030
182 1 6.681390 54.307700 1.760270
800 1 15.653500 54.307700 5.280030
388 1 15.653500 54.307700 1.760270
593 1 4.809230 54.570000 3.520150
181 1 4.809230 54.570000 0.000384
799 1 13.781300 54.570000 3.520150
387 1 13.781300 54.570000 0.000384
491 1 3.112700 54.716300 5.280030
79 1 3.112700 54.716300 1.760270
697 1 12.084800 54.716300 5.280030
285 1 12.084800 54.716300 1.760270
490 1 1.533630 55.102700 3.520150
78 1 1.533630 55.102700 0.000384
696 1 10.505800 55.102700 3.520150
284 1 10.505800 55.102700 0.000384
701 1 8.786990 55.568100 5.280030
289 1 8.786990 55.568100 1.760270
495 1 17.759100 55.568100 5.280030
83 1 17.759100 55.568100 1.760270
595 1 6.976310 55.937800 3.520150
183 1 6.976310 55.937800 0.000384
801 1 15.948400 55.937800 3.520150
389 1 15.948400 55.937800 0.000384
598 1 5.204960 56.257400 5.280030
186 1 5.204960 56.257400 1.760270
804 1 14.177100 56.257400 5.280030
392 1 14.177100 56.257400 1.760270
492 1 3.505770 56.596200 3.520150
80 1 3.505770 56.596200 0.000384
698 1 12.477900 56.596200 3.520150
286 1 12.477900 56.596200 0.000384
493 1 1.841910 56.911400 5.280030
81 1 1.841910 56.911400 1.760270
699 1 10.814000 56.911400 5.280030
287 1 10.814000 56.911400 1.760270
496 1 0.118892 57.256000 3.520150
84 1 0.118892 57.256000 0.000384
702 1 9.091010 57.256000 3.520150
290 1 9.091010 57.256000 0.000384
597 1 7.335390 57.614200 5.280030
185 1 7.335390 57.614200 1.760270
803 1 16.307500 57.614200 5.280030
391 1 16.307500 57.614200 1.760270
596 1 5.592300 57.977600 3.520150
184 1 5.592300 57.977600 0.000384
802 1 14.564400 57.977600 3.520150
390 1 14.564400 57.977600 0.000384
603 1 3.874390 58.335100 5.280030
191 1 3.874390 58.335100 1.760270
809 1 12.846500 58.335100 5.280030
397 1 12.846500 58.335100 1.760270
497 1 2.157380 58.668100 3.520150
85 1 2.157380 58.668100 0.000384
703 1 11.129500 58.668100 3.520150
291 1 11.129500 58.668100 0.000384
500 1 0.438895 58.989900 5.280030
88 1 0.438895 58.989900 1.760270
706 1 9.411020 58.989900 5.280030
294 1 9.411020 58.989900 1.760270
599 1 7.685190 59.333700 3.520150
187 1 7.685190 59.333700 0.000384
805 1 16.657300 59.333700 3.520150
393 1 16.657300 59.333700 0.000384
602 1 5.957020 59.693700 5.280030
190 1 5.957020 59.693700 1.760270
808 1 14.929100 59.693700 5.280030
396 1 14.929100 59.693700 1.760270
604 1 4.226770 60.051100 3.520150
192 1 4.226770 60.051100 0.000384
810 1 13.198900 60.051100 3.520150
398 1 13.198900 60.051100 0.000384
499 1 2.498090 60.394800 5.280030
87 1 2.498090 60.394800 1.760270
705 1 11.470200 60.394800 5.280030
293 1 11.470200 60.394800 1.760270
501 1 0.774994 60.729200 3.520150
89 1 0.774994 60.729200 0.000384
707 1 9.747120 60.729200 3.520150
295 1 9.747120 60.729200 0.000384
601 1 8.027890 61.067700 5.280030
189 1 8.027890 61.067700 1.760270
807 1 17.000000 61.067700 5.280030
395 1 17.000000 61.067700 1.760270
600 1 6.304310 61.416200 3.520150
188 1 6.304310 61.416200 0.000384
806 1 15.276400 61.416200 3.520150
394 1 15.276400 61.416200 0.000384
605 1 4.575420 61.767800 5.280030
193 1 4.575420 61.767800 1.760270
811 1 13.547500 61.767800 5.280030
399 1 13.547500 61.767800 1.760270
498 1 2.845870 62.116100 3.520150
86 1 2.845870 62.116100 0.000384
704 1 11.818000 62.116100 3.520150
292 1 11.818000 62.116100 0.000384
502 1 1.120240 62.459500 5.280030
90 1 1.120240 62.459500 1.760270
708 1 10.092400 62.459500 5.280030
296 1 10.092400 62.459500 1.760270
711 1 8.370000 62.800700 3.520150
299 1 8.370000 62.800700 0.000384
505 1 17.342100 62.800700 3.520150
93 1 17.342100 62.800700 0.000384
607 1 6.647010 63.143900 5.280030
195 1 6.647010 63.143900 1.760270
813 1 15.619100 63.143900 5.280030
401 1 15.619100 63.143900 1.760270
609 1 4.921090 63.490400 3.520150
197 1 4.921090 63.490400 0.000384
815 1 13.893200 63.490400 3.520150
403 1 13.893200 63.490400 0.000384
504 1 3.193740 63.838300 5.280030
92 1 3.193740 63.838300 1.760270
710 1 12.165900 63.838300 5.280030
298 1 12.165900 63.838300 1.760270
506 1 1.467210 64.184900 3.520150
94 1 1.467210 64.184900 0.000384
712 1 10.439300 64.184900 3.520150
300 1 10.439300 64.184900 0.000384
715 1 8.714400 64.529100 5.280030
303 1 8.714400 64.529100 1.760270
509 1 17.686500 64.529100 5.280030
97 1 17.686500 64.529100 1.760270
606 1 6.990220 64.872300 3.520150
194 1 6.990220 64.872300 0.000384
812 1 15.962300 64.872300 3.520150
400 1 15.962300 64.872300 0.000384
610 1 5.265550 65.216700 5.280030
198 1 5.265550 65.216700 1.760270
816 1 14.237700 65.216700 5.280030
404 1 14.237700 65.216700 1.760270
503 1 3.539850 65.562900 3.520150
91 1 3.539850 65.562900 0.000384
709 1 12.512000 65.562900 3.520150
297 1 12.512000 65.562900 0.000384
508 1 1.813680 65.909400 5.280030
96 1 1.813680 65.909400 1.760270
714 1 10.785800 65.909400 5.280030
302 1 10.785800 65.909400 1.760270
507 1 0.087841 66.255000 3.520150
95 1 0.087841 66.255000 0.000384
713 1 9.059960 66.255000 3.520150
301 1 9.059960 66.255000 0.000384
608 1 7.334830 66.599500 5.280030
196 1 7.334830 66.599500 1.760270
814 1 16.306900 66.599500 5.280030
402 1 16.306900 66.599500 1.760270
611 1 5.610050 66.943800 3.520150
199 1 5.610050 66.943800 0.000384
817 1 14.582200 66.943800 3.520150
405 1 14.582200 66.943800 0.000384
616 1 3.884970 67.288900 5.280030
204 1 3.884970 67.288900 1.760270
822 1 12.857100 67.288900 5.280030
410 1 12.857100 67.288900 1.760270
510 1 2.159360 67.634600 3.520150
98 1 2.159360 67.634600 0.000384
716 1 11.131500 67.634600 3.520150
304 1 11.131500 67.634600 0.000384
513 1 0.433545 67.980400 5.280030
101 1 0.433545 67.980400 1.760270
719 1 9.405670 67.980400 5.280030
307 1 9.405670 67.980400 1.760270
612 1 7.680120 68.325800 3.520150
200 1 7.680120 68.325800 0.000384
818 1 16.652200 68.325800 3.520150
406 1 16.652200 68.325800 0.000384
615 1 5.954970 68.670500 5.280030
203 1 5.954970 68.670500 1.760270
821 1 14.927100 68.670500 5.280030
409 1 14.927100 68.670500 1.760270
614 1 4.229920 69.015300 3.520150
202 1 4.229920 69.015300 0.000384
820 1 13.202000 69.015300 3.520150
408 1 13.202000 69.015300 0.000384
512 1 2.504630 69.360500 5.280030
100 1 2.504630 69.360500 1.760270
718 1 11.476800 69.360500 5.280030
306 1 11.476800 69.360500 1.760270
511 1 0.779046 69.706000 3.520150
99 1 0.779046 69.706000 0.000384
717 1 9.751170 69.706000 3.520150
305 1 9.751170 69.706000 0.000384
613 1 8.025530 70.051600 5.280030
201 1 8.025530 70.051600 1.760270
819 1 16.997700 70.051600 5.280030
407 1 16.997700 70.051600 1.760270
617 1 6.300120 70.396900 3.520150
205 1 6.300120 70.396900 0.000384
823 1 15.272200 70.396900 3.520150
411 1 15.272200 70.396900 0.000384
618 1 4.574960 70.741700 5.280030
206 1 4.574960 70.741700 1.760270
824 1 13.547100 70.741700 5.280030
412 1 13.547100 70.741700 1.760270
514 1 2.849820 71.086600 3.520150
102 1 2.849820 71.086600 0.000384
720 1 11.821900 71.086600 3.520150
308 1 11.821900 71.086600 0.000384
515 1 1.124450 71.431800 5.280030
103 1 1.124450 71.431800 1.760270
721 1 10.096600 71.431800 5.280030
309 1 10.096600 71.431800 1.760270
623 1 8.370940 71.777300 3.520150
211 1 8.370940 71.777300 0.000384
417 1 17.343100 71.777300 3.520150
5 1 17.343100 71.777300 0.000384
