Position data for Nickel-Sulfur system 
 
 1616     atoms
 4     atom types
 0.004876 29.010035 xlo xhi 
 0.034254 87.044736 ylo yhi 
 0.000425 7.036724 zlo zhi 
 
 Masses 
 
 1 58.71
 2 32.06
 3 58.71
 4 58.71
 
 Atoms 
 
1020 1 6.758040 0.076768 5.278400
212 1 6.758040 0.076768 1.760250
1222 1 14.009300 0.076768 3.519320
414 1 14.009300 0.076768 0.001175
1424 1 21.260600 0.076768 5.278400
616 1 21.260600 0.076768 1.760250
818 1 28.511900 0.076768 3.519320
10 1 28.511900 0.076768 0.001175
809 1 5.052030 0.503843 3.519320
1 1 5.052030 0.503843 0.001175
1012 1 12.303300 0.503843 5.278400
204 1 12.303300 0.503843 1.760250
1213 1 19.554600 0.503843 3.519320
405 1 19.554600 0.503843 0.001175
1416 1 26.805900 0.503843 5.278400
608 1 26.805900 0.503843 1.760250
813 1 3.346010 0.930927 5.278400
5 1 3.346010 0.930927 1.760250
1014 1 10.597300 0.930927 3.519320
206 1 10.597300 0.930927 0.001175
1217 1 17.848600 0.930927 5.278400
409 1 17.848600 0.930927 1.760250
1418 1 25.099900 0.930927 3.519320
610 1 25.099900 0.930927 0.001175
812 1 1.639970 1.358040 3.519320
4 1 1.639970 1.358040 0.001175
1017 1 8.891260 1.358040 5.278400
209 1 8.891260 1.358040 1.760250
1216 1 16.142600 1.358040 3.519320
408 1 16.142600 1.358040 0.001175
1421 1 23.393800 1.358040 5.278400
613 1 23.393800 1.358040 1.760250
1021 1 7.185240 1.785150 3.519320
213 1 7.185240 1.785150 0.001175
1223 1 14.436500 1.785150 5.278400
415 1 14.436500 1.785150 1.760250
1425 1 21.687800 1.785150 3.519320
617 1 21.687800 1.785150 0.001175
819 1 28.939100 1.785150 5.278400
11 1 28.939100 1.785150 1.760250
811 1 5.479230 2.212230 5.278400
3 1 5.479230 2.212230 1.760250
1011 1 12.730500 2.212230 3.519320
203 1 12.730500 2.212230 0.001175
1215 1 19.981800 2.212230 5.278400
407 1 19.981800 2.212230 1.760250
1415 1 27.233100 2.212230 3.519320
607 1 27.233100 2.212230 0.001175
814 1 3.773240 2.639280 3.519320
6 1 3.773240 2.639280 0.001175
1016 1 11.024500 2.639280 5.278400
208 1 11.024500 2.639280 1.760250
1218 1 18.275800 2.639280 3.519320
410 1 18.275800 2.639280 0.001175
1420 1 25.527100 2.639280 5.278400
612 1 25.527100 2.639280 1.760250
817 1 2.067210 3.066350 5.278400
9 1 2.067210 3.066350 1.760250
1015 1 9.318500 3.066350 3.519320
207 1 9.318500 3.066350 0.001175
1221 1 16.569800 3.066350 5.278400
413 1 16.569800 3.066350 1.760250
1419 1 23.821100 3.066350 3.519320
611 1 23.821100 3.066350 0.001175
820 1 0.361156 3.493500 3.519320
12 1 0.361156 3.493500 0.001175
1022 1 7.612450 3.493500 5.278400
214 1 7.612450 3.493500 1.760250
1224 1 14.863700 3.493500 3.519320
416 1 14.863700 3.493500 0.001175
1426 1 22.115000 3.493500 5.278400
618 1 22.115000 3.493500 1.760250
810 1 5.906410 3.920650 3.519320
2 1 5.906410 3.920650 0.001175
1013 1 13.157700 3.920650 5.278400
205 1 13.157700 3.920650 1.760250
1214 1 20.409000 3.920650 3.519320
406 1 20.409000 3.920650 0.001175
1417 1 27.660300 3.920650 5.278400
609 1 27.660300 3.920650 1.760250
816 1 4.200430 4.347700 5.278400
8 1 4.200430 4.347700 1.760250
1018 1 11.451700 4.347700 3.519320
210 1 11.451700 4.347700 0.001175
1220 1 18.703000 4.347700 5.278400
412 1 18.703000 4.347700 1.760250
1422 1 25.954300 4.347700 3.519320
614 1 25.954300 4.347700 0.001175
815 1 2.494470 4.774670 3.519320
7 1 2.494470 4.774670 0.001175
1019 1 9.745760 4.774670 5.278400
211 1 9.745760 4.774670 1.760250
1219 1 16.997000 4.774670 3.519320
411 1 16.997000 4.774670 0.001175
1423 1 24.248300 4.774670 5.278400
615 1 24.248300 4.774670 1.760250
821 1 0.788424 5.201750 5.278400
13 1 0.788424 5.201750 1.760250
1023 1 8.039710 5.201750 3.519320
215 1 8.039710 5.201750 0.001175
1225 1 15.291000 5.201750 5.278400
417 1 15.291000 5.201750 1.760250
1427 1 22.542300 5.201750 3.519320
619 1 22.542300 5.201750 0.001175
822 1 6.333590 5.629000 5.278400
14 1 6.333590 5.629000 1.760250
1024 1 13.584900 5.629000 3.519320
216 1 13.584900 5.629000 0.001175
1226 1 20.836200 5.629000 5.278400
418 1 20.836200 5.629000 1.760250
1428 1 28.087500 5.629000 3.519320
620 1 28.087500 5.629000 0.001175
823 1 4.627550 6.056220 3.519320
15 1 4.627550 6.056220 0.001175
1026 1 11.878800 6.056220 5.278400
218 1 11.878800 6.056220 1.760250
1227 1 19.130100 6.056220 3.519320
419 1 19.130100 6.056220 0.001175
1430 1 26.381400 6.056220 5.278400
622 1 26.381400 6.056220 1.760250
826 1 2.921660 6.483150 5.278400
18 1 2.921660 6.483150 1.760250
1025 1 10.172900 6.483150 3.519320
217 1 10.172900 6.483150 0.001175
1230 1 17.424200 6.483150 5.278400
422 1 17.424200 6.483150 1.760250
1429 1 24.675500 6.483150 3.519320
621 1 24.675500 6.483150 0.001175
829 1 1.215770 6.909950 3.519320
21 1 1.215770 6.909950 0.001175
1032 1 8.467060 6.909950 5.278400
224 1 8.467060 6.909950 1.760250
1233 1 15.718300 6.909950 3.519320
425 1 15.718300 6.909950 0.001175
1436 1 22.969600 6.909950 5.278400
628 1 22.969600 6.909950 1.760250
1031 1 6.760920 7.337090 3.519320
223 1 6.760920 7.337090 0.001175
1236 1 14.012200 7.337090 5.278400
428 1 14.012200 7.337090 1.760250
1435 1 21.263500 7.337090 3.519320
627 1 21.263500 7.337090 0.001175
832 1 28.514800 7.337090 5.278400
24 1 28.514800 7.337090 1.760250
825 1 5.054640 7.764630 5.278400
17 1 5.054640 7.764630 1.760250
1027 1 12.305900 7.764630 3.519320
219 1 12.305900 7.764630 0.001175
1229 1 19.557200 7.764630 5.278400
421 1 19.557200 7.764630 1.760250
1431 1 26.808500 7.764630 3.519320
623 1 26.808500 7.764630 0.001175
824 1 3.348630 8.191950 3.519320
16 1 3.348630 8.191950 0.001175
1030 1 10.599900 8.191950 5.278400
222 1 10.599900 8.191950 1.760250
1228 1 17.851200 8.191950 3.519320
420 1 17.851200 8.191950 0.001175
1434 1 25.102500 8.191950 5.278400
626 1 25.102500 8.191950 1.760250
831 1 1.642990 8.618520 5.278400
23 1 1.642990 8.618520 1.760250
1033 1 8.894280 8.618520 3.519320
225 1 8.894280 8.618520 0.001175
1235 1 16.145600 8.618520 5.278400
427 1 16.145600 8.618520 1.760250
1437 1 23.396900 8.618520 3.519320
629 1 23.396900 8.618520 0.001175
1036 1 7.188500 9.044930 5.278400
228 1 7.188500 9.044930 1.760250
1234 1 14.439800 9.044930 3.519320
426 1 14.439800 9.044930 0.001175
1440 1 21.691100 9.044930 5.278400
632 1 21.691100 9.044930 1.760250
830 1 28.942400 9.044930 3.519320
22 1 28.942400 9.044930 0.001175
827 1 5.482070 9.472360 3.519320
19 1 5.482070 9.472360 0.001175
1029 1 12.733400 9.472360 5.278400
221 1 12.733400 9.472360 1.760250
1231 1 19.984700 9.472360 3.519320
423 1 19.984700 9.472360 0.001175
1433 1 27.235900 9.472360 5.278400
625 1 27.235900 9.472360 1.760250
828 1 3.775450 9.900690 5.278400
20 1 3.775450 9.900690 1.760250
1028 1 11.026700 9.900690 3.519320
220 1 11.026700 9.900690 0.001175
1232 1 18.278000 9.900690 5.278400
424 1 18.278000 9.900690 1.760250
1432 1 25.529300 9.900690 3.519320
624 1 25.529300 9.900690 0.001175
833 1 2.069630 10.328000 3.519320
25 1 2.069630 10.328000 0.001175
1035 1 9.320920 10.328000 5.278400
227 1 9.320920 10.328000 1.760250
1237 1 16.572200 10.328000 3.519320
429 1 16.572200 10.328000 0.001175
1439 1 23.823500 10.328000 5.278400
631 1 23.823500 10.328000 1.760250
834 1 0.364591 10.753500 5.278400
26 1 0.364591 10.753500 1.760250
1034 1 7.615880 10.753500 3.519320
226 1 7.615880 10.753500 0.001175
1238 1 14.867200 10.753500 5.278400
430 1 14.867200 10.753500 1.760250
1438 1 22.118500 10.753500 3.519320
630 1 22.118500 10.753500 0.001175
836 1 5.910330 11.179200 5.278400
28 1 5.910330 11.179200 1.760250
1037 1 13.161600 11.179200 3.519320
229 1 13.161600 11.179200 0.001175
1240 1 20.412900 11.179200 5.278400
432 1 20.412900 11.179200 1.760250
1441 1 27.664200 11.179200 3.519320
633 1 27.664200 11.179200 0.001175
835 1 4.203040 11.607700 3.519320
27 1 4.203040 11.607700 0.001175
1040 1 11.454300 11.607700 5.278400
232 1 11.454300 11.607700 1.760250
1239 1 18.705600 11.607700 3.519320
431 1 18.705600 11.607700 0.001175
1444 1 25.956900 11.607700 5.278400
636 1 25.956900 11.607700 1.760250
841 1 2.495460 12.037800 5.278400
33 1 2.495460 12.037800 1.760250
1042 1 9.746750 12.037800 3.519320
234 1 9.746750 12.037800 0.001175
1245 1 16.998000 12.037800 5.278400
437 1 16.998000 12.037800 1.760250
1446 1 24.249300 12.037800 3.519320
638 1 24.249300 12.037800 0.001175
840 1 0.790516 12.464700 3.519320
32 1 0.790516 12.464700 0.001175
1045 1 8.041810 12.464700 5.278400
237 1 8.041810 12.464700 1.760250
1244 1 15.293100 12.464700 3.519320
436 1 15.293100 12.464700 0.001175
1449 1 22.544400 12.464700 5.278400
641 1 22.544400 12.464700 1.760250
837 1 6.338700 12.887500 3.519320
29 1 6.338700 12.887500 0.001175
1039 1 13.590000 12.887500 5.278400
231 1 13.590000 12.887500 1.760250
1241 1 20.841300 12.887500 3.519320
433 1 20.841300 12.887500 0.001175
1443 1 28.092600 12.887500 5.278400
635 1 28.092600 12.887500 1.760250
839 1 4.632810 13.311500 5.278400
31 1 4.632810 13.311500 1.760250
1038 1 11.884100 13.311500 3.519320
230 1 11.884100 13.311500 0.001175
1243 1 19.135400 13.311500 5.278400
435 1 19.135400 13.311500 1.760250
1442 1 26.386700 13.311500 3.519320
634 1 26.386700 13.311500 0.001175
842 1 2.922270 13.743300 3.519320
34 1 2.922270 13.743300 0.001175
1044 1 10.173600 13.743300 5.278400
236 1 10.173600 13.743300 1.760250
1246 1 17.424900 13.743300 3.519320
438 1 17.424900 13.743300 0.001175
1448 1 24.676100 13.743300 5.278400
640 1 24.676100 13.743300 1.760250
845 1 1.214570 14.179000 5.278400
37 1 1.214570 14.179000 1.760250
1043 1 8.465860 14.179000 3.519320
235 1 8.465860 14.179000 0.001175
1249 1 15.717100 14.179000 5.278400
441 1 15.717100 14.179000 1.760250
1447 1 22.968400 14.179000 3.519320
639 1 22.968400 14.179000 0.001175
1048 1 6.764220 14.602300 5.278400
240 1 6.764220 14.602300 1.760250
1250 1 14.015500 14.602300 3.519320
442 1 14.015500 14.602300 0.001175
1452 1 21.266800 14.602300 5.278400
644 1 21.266800 14.602300 1.760250
846 1 28.518100 14.602300 3.519320
38 1 28.518100 14.602300 0.001175
838 1 5.061160 15.016200 3.519320
30 1 5.061160 15.016200 0.001175
1041 1 12.312500 15.016200 5.278400
233 1 12.312500 15.016200 1.760250
1242 1 19.563700 15.016200 3.519320
434 1 19.563700 15.016200 0.001175
1445 1 26.815000 15.016200 5.278400
637 1 26.815000 15.016200 1.760250
844 1 3.356870 15.440600 5.278400
36 1 3.356870 15.440600 1.760250
1046 1 10.608200 15.440600 3.519320
238 1 10.608200 15.440600 0.001175
1248 1 17.859400 15.440600 5.278400
440 1 17.859400 15.440600 1.760250
1450 1 25.110700 15.440600 3.519320
642 1 25.110700 15.440600 0.001175
843 1 1.643540 15.885900 3.519320
35 1 1.643540 15.885900 0.001175
1047 1 8.894830 15.885900 5.278400
239 1 8.894830 15.885900 1.760250
1247 1 16.146100 15.885900 3.519320
439 1 16.146100 15.885900 0.001175
1451 1 23.397400 15.885900 5.278400
643 1 23.397400 15.885900 1.760250
1049 1 7.178320 16.325900 3.519320
241 1 7.178320 16.325900 0.001175
1251 1 14.429600 16.325900 5.278400
443 1 14.429600 16.325900 1.760250
1453 1 21.680900 16.325900 3.519320
645 1 21.680900 16.325900 0.001175
847 1 28.932200 16.325900 5.278400
39 1 28.932200 16.325900 1.760250
849 1 5.481040 16.732700 5.278400
41 1 5.481040 16.732700 1.760250
1050 1 12.732300 16.732700 3.519320
242 1 12.732300 16.732700 0.001175
1253 1 19.983600 16.732700 5.278400
445 1 19.983600 16.732700 1.760250
1454 1 27.234900 16.732700 3.519320
646 1 27.234900 16.732700 0.001175
851 1 3.802790 17.152600 3.519320
43 1 3.802790 17.152600 0.001175
1054 1 11.054100 17.152600 5.278400
246 1 11.054100 17.152600 1.760250
1255 1 18.305400 17.152600 3.519320
447 1 18.305400 17.152600 0.001175
1458 1 25.556700 17.152600 5.278400
650 1 25.556700 17.152600 1.760250
854 1 2.098050 17.563500 5.278400
46 1 2.098050 17.563500 1.760250
1053 1 9.349340 17.563500 3.519320
245 1 9.349340 17.563500 0.001175
1258 1 16.600600 17.563500 5.278400
450 1 16.600600 17.563500 1.760250
1457 1 23.851900 17.563500 3.519320
649 1 23.851900 17.563500 0.001175
857 1 0.320840 18.009600 3.519320
49 1 0.320840 18.009600 0.001175
1059 1 7.572130 18.009600 5.278400
251 1 7.572130 18.009600 1.760250
1261 1 14.823400 18.009600 3.519320
453 1 14.823400 18.009600 0.001175
1463 1 22.074700 18.009600 5.278400
655 1 22.074700 18.009600 1.760250
848 1 5.888180 18.533800 3.519320
40 1 5.888180 18.533800 0.001175
1052 1 13.139500 18.533800 5.278400
244 1 13.139500 18.533800 1.760250
1252 1 20.390800 18.533800 3.519320
444 1 20.390800 18.533800 0.001175
1456 1 27.642100 18.533800 5.278400
648 1 27.642100 18.533800 1.760250
853 1 4.290010 18.890900 5.278400
45 1 4.290010 18.890900 1.760250
1055 1 11.541300 18.890900 3.519320
247 1 11.541300 18.890900 0.001175
1257 1 18.792600 18.890900 5.278400
449 1 18.792600 18.890900 1.760250
1459 1 26.043900 18.890900 3.519320
651 1 26.043900 18.890900 0.001175
852 1 2.496060 19.226000 3.519320
44 1 2.496060 19.226000 0.001175
1058 1 9.747350 19.226000 5.278400
250 1 9.747350 19.226000 1.760250
1256 1 16.998600 19.226000 3.519320
448 1 16.998600 19.226000 0.001175
1462 1 24.249900 19.226000 5.278400
654 1 24.249900 19.226000 1.760250
858 1 0.746189 19.605800 5.278400
50 1 0.746189 19.605800 1.760250
1060 1 7.997480 19.605800 3.519320
252 1 7.997480 19.605800 0.001175
1262 1 15.248800 19.605800 5.278400
454 1 15.248800 19.605800 1.760250
1464 1 22.500100 19.605800 3.519320
656 1 22.500100 19.605800 0.001175
856 1 2.872180 20.761700 5.278400
48 1 2.872180 20.761700 1.760250
855 1 4.637820 20.761700 3.519320
47 1 4.637820 20.761700 0.001175
850 1 6.451090 20.761700 5.278400
42 1 6.451090 20.761700 1.760250
1056 1 10.123500 20.761700 3.519320
248 1 10.123500 20.761700 0.001175
1057 1 11.889100 20.761700 5.278400
249 1 11.889100 20.761700 1.760250
1051 1 13.702400 20.761700 3.519320
243 1 13.702400 20.761700 0.001175
1260 1 17.374800 20.761700 5.278400
452 1 17.374800 20.761700 1.760250
1259 1 19.140400 20.761700 3.519320
451 1 19.140400 20.761700 0.001175
1254 1 20.953700 20.761700 5.278400
446 1 20.953700 20.761700 1.760250
1460 1 24.626000 20.761700 3.519320
652 1 24.626000 20.761700 0.001175
1461 1 26.391700 20.761700 5.278400
653 1 26.391700 20.761700 1.760250
1455 1 28.205000 20.761700 3.519320
647 1 28.205000 20.761700 0.001175
859 1 0.746188 21.917500 5.278400
51 1 0.746188 21.917500 1.760250
1061 1 7.997480 21.917500 3.519320
253 1 7.997480 21.917500 0.001175
1263 1 15.248800 21.917500 5.278400
455 1 15.248800 21.917500 1.760250
1465 1 22.500100 21.917500 3.519320
657 1 22.500100 21.917500 0.001175
866 1 2.496060 22.297300 3.519320
58 1 2.496060 22.297300 0.001175
1062 1 9.747350 22.297300 5.278400
254 1 9.747350 22.297300 1.760250
1270 1 16.998600 22.297300 3.519320
462 1 16.998600 22.297300 0.001175
1466 1 24.249900 22.297300 5.278400
658 1 24.249900 22.297300 1.760250
861 1 4.290010 22.632500 5.278400
53 1 4.290010 22.632500 1.760250
1068 1 11.541300 22.632500 3.519320
260 1 11.541300 22.632500 0.001175
1265 1 18.792600 22.632500 5.278400
457 1 18.792600 22.632500 1.760250
1472 1 26.043900 22.632500 3.519320
664 1 26.043900 22.632500 0.001175
869 1 5.888180 22.989500 3.519320
61 1 5.888180 22.989500 0.001175
1065 1 13.139500 22.989500 5.278400
257 1 13.139500 22.989500 1.760250
1273 1 20.390800 22.989500 3.519320
465 1 20.390800 22.989500 0.001175
1469 1 27.642100 22.989500 5.278400
661 1 27.642100 22.989500 1.760250
1475 1 0.320840 23.513700 3.519320
667 1 0.320840 23.513700 0.001175
864 1 7.572130 23.513700 5.278400
56 1 7.572130 23.513700 1.760250
1071 1 14.823400 23.513700 3.519320
263 1 14.823400 23.513700 0.001175
1268 1 22.074700 23.513700 5.278400
460 1 22.074700 23.513700 1.760250
860 1 2.098050 23.959800 5.278400
52 1 2.098050 23.959800 1.760250
1069 1 9.349340 23.959800 3.519320
261 1 9.349340 23.959800 0.001175
1264 1 16.600600 23.959800 5.278400
456 1 16.600600 23.959800 1.760250
1473 1 23.851900 23.959800 3.519320
665 1 23.851900 23.959800 0.001175
867 1 3.802790 24.370700 3.519320
59 1 3.802790 24.370700 0.001175
1064 1 11.054100 24.370700 5.278400
256 1 11.054100 24.370700 1.760250
1271 1 18.305400 24.370700 3.519320
463 1 18.305400 24.370700 0.001175
1468 1 25.556700 24.370700 5.278400
660 1 25.556700 24.370700 1.760250
863 1 5.481040 24.790600 5.278400
55 1 5.481040 24.790600 1.760250
1072 1 12.732300 24.790600 3.519320
264 1 12.732300 24.790600 0.001175
1267 1 19.983600 24.790600 5.278400
459 1 19.983600 24.790600 1.760250
1476 1 27.234900 24.790600 3.519320
668 1 27.234900 24.790600 0.001175
870 1 7.178320 25.197400 3.519320
62 1 7.178320 25.197400 0.001175
1067 1 14.429600 25.197400 5.278400
259 1 14.429600 25.197400 1.760250
1274 1 21.680900 25.197400 3.519320
466 1 21.680900 25.197400 0.001175
1471 1 28.932200 25.197400 5.278400
663 1 28.932200 25.197400 1.760250
868 1 1.643530 25.637500 3.519320
60 1 1.643530 25.637500 0.001175
1063 1 8.894820 25.637500 5.278400
255 1 8.894820 25.637500 1.760250
1272 1 16.146100 25.637500 3.519320
464 1 16.146100 25.637500 0.001175
1467 1 23.397400 25.637500 5.278400
659 1 23.397400 25.637500 1.760250
862 1 3.356870 26.082700 5.278400
54 1 3.356870 26.082700 1.760250
1070 1 10.608200 26.082700 3.519320
262 1 10.608200 26.082700 0.001175
1266 1 17.859400 26.082700 5.278400
458 1 17.859400 26.082700 1.760250
1474 1 25.110700 26.082700 3.519320
666 1 25.110700 26.082700 0.001175
871 1 5.061160 26.507100 3.519320
63 1 5.061160 26.507100 0.001175
1066 1 12.312500 26.507100 5.278400
258 1 12.312500 26.507100 1.760250
1275 1 19.563700 26.507100 3.519320
467 1 19.563700 26.507100 0.001175
1470 1 26.815000 26.507100 5.278400
662 1 26.815000 26.507100 1.760250
865 1 6.764210 26.921000 5.278400
57 1 6.764210 26.921000 1.760250
1073 1 14.015500 26.921000 3.519320
265 1 14.015500 26.921000 0.001175
1269 1 21.266800 26.921000 5.278400
461 1 21.266800 26.921000 1.760250
1477 1 28.518100 26.921000 3.519320
669 1 28.518100 26.921000 0.001175
872 1 1.214570 27.344400 5.278400
64 1 1.214570 27.344400 1.760250
1081 1 8.465860 27.344400 3.519320
273 1 8.465860 27.344400 0.001175
1276 1 15.717100 27.344400 5.278400
468 1 15.717100 27.344400 1.760250
1485 1 22.968400 27.344400 3.519320
677 1 22.968400 27.344400 0.001175
878 1 2.922270 27.780000 3.519320
70 1 2.922270 27.780000 0.001175
1075 1 10.173600 27.780000 5.278400
267 1 10.173600 27.780000 1.760250
1282 1 17.424900 27.780000 3.519320
474 1 17.424900 27.780000 0.001175
1479 1 24.676100 27.780000 5.278400
671 1 24.676100 27.780000 1.760250
874 1 4.632810 28.211800 5.278400
66 1 4.632810 28.211800 1.760250
1083 1 11.884100 28.211800 3.519320
275 1 11.884100 28.211800 0.001175
1278 1 19.135400 28.211800 5.278400
470 1 19.135400 28.211800 1.760250
1487 1 26.386700 28.211800 3.519320
679 1 26.386700 28.211800 0.001175
881 1 6.338700 28.635800 3.519320
73 1 6.338700 28.635800 0.001175
1078 1 13.590000 28.635800 5.278400
270 1 13.590000 28.635800 1.760250
1285 1 20.841300 28.635800 3.519320
477 1 20.841300 28.635800 0.001175
1482 1 28.092600 28.635800 5.278400
674 1 28.092600 28.635800 1.760250
879 1 0.790516 29.058600 3.519320
71 1 0.790516 29.058600 0.001175
1074 1 8.041810 29.058600 5.278400
266 1 8.041810 29.058600 1.760250
1283 1 15.293100 29.058600 3.519320
475 1 15.293100 29.058600 0.001175
1478 1 22.544400 29.058600 5.278400
670 1 22.544400 29.058600 1.760250
873 1 2.495460 29.485500 5.278400
65 1 2.495460 29.485500 1.760250
1082 1 9.746750 29.485500 3.519320
274 1 9.746750 29.485500 0.001175
1277 1 16.998000 29.485500 5.278400
469 1 16.998000 29.485500 1.760250
1486 1 24.249300 29.485500 3.519320
678 1 24.249300 29.485500 0.001175
882 1 4.203040 29.915600 3.519320
74 1 4.203040 29.915600 0.001175
1077 1 11.454300 29.915600 5.278400
269 1 11.454300 29.915600 1.760250
1286 1 18.705600 29.915600 3.519320
478 1 18.705600 29.915600 0.001175
1481 1 25.956900 29.915600 5.278400
673 1 25.956900 29.915600 1.760250
876 1 5.910330 30.344100 5.278400
68 1 5.910330 30.344100 1.760250
1084 1 13.161600 30.344100 3.519320
276 1 13.161600 30.344100 0.001175
1280 1 20.412900 30.344100 5.278400
472 1 20.412900 30.344100 1.760250
1488 1 27.664200 30.344100 3.519320
680 1 27.664200 30.344100 0.001175
1484 1 0.364591 30.769800 5.278400
676 1 0.364591 30.769800 1.760250
884 1 7.615880 30.769800 3.519320
76 1 7.615880 30.769800 0.001175
1080 1 14.867200 30.769800 5.278400
272 1 14.867200 30.769800 1.760250
1288 1 22.118500 30.769800 3.519320
480 1 22.118500 30.769800 0.001175
880 1 2.069620 31.195300 3.519320
72 1 2.069620 31.195300 0.001175
1076 1 9.320910 31.195300 5.278400
268 1 9.320910 31.195300 1.760250
1284 1 16.572200 31.195300 3.519320
476 1 16.572200 31.195300 0.001175
1480 1 23.823500 31.195300 5.278400
672 1 23.823500 31.195300 1.760250
875 1 3.775450 31.622600 5.278400
67 1 3.775450 31.622600 1.760250
1085 1 11.026700 31.622600 3.519320
277 1 11.026700 31.622600 0.001175
1279 1 18.278000 31.622600 5.278400
471 1 18.278000 31.622600 1.760250
1489 1 25.529300 31.622600 3.519320
681 1 25.529300 31.622600 0.001175
883 1 5.482070 32.051000 3.519320
75 1 5.482070 32.051000 0.001175
1079 1 12.733400 32.051000 5.278400
271 1 12.733400 32.051000 1.760250
1287 1 19.984700 32.051000 3.519320
479 1 19.984700 32.051000 0.001175
1483 1 27.235900 32.051000 5.278400
675 1 27.235900 32.051000 1.760250
877 1 7.188500 32.478400 5.278400
69 1 7.188500 32.478400 1.760250
1086 1 14.439800 32.478400 3.519320
278 1 14.439800 32.478400 0.001175
1281 1 21.691100 32.478400 5.278400
473 1 21.691100 32.478400 1.760250
1490 1 28.942400 32.478400 3.519320
682 1 28.942400 32.478400 0.001175
885 1 1.642990 32.904800 5.278400
77 1 1.642990 32.904800 1.760250
1093 1 8.894280 32.904800 3.519320
285 1 8.894280 32.904800 0.001175
1289 1 16.145600 32.904800 5.278400
481 1 16.145600 32.904800 1.760250
1497 1 23.396900 32.904800 3.519320
689 1 23.396900 32.904800 0.001175
893 1 3.348630 33.331400 3.519320
85 1 3.348630 33.331400 0.001175
1088 1 10.599900 33.331400 5.278400
280 1 10.599900 33.331400 1.760250
1297 1 17.851200 33.331400 3.519320
489 1 17.851200 33.331400 0.001175
1492 1 25.102500 33.331400 5.278400
684 1 25.102500 33.331400 1.760250
888 1 5.054640 33.758700 5.278400
80 1 5.054640 33.758700 1.760250
1095 1 12.305900 33.758700 3.519320
287 1 12.305900 33.758700 0.001175
1292 1 19.557200 33.758700 5.278400
484 1 19.557200 33.758700 1.760250
1499 1 26.808500 33.758700 3.519320
691 1 26.808500 33.758700 0.001175
896 1 6.760920 34.186200 3.519320
88 1 6.760920 34.186200 0.001175
1091 1 14.012200 34.186200 5.278400
283 1 14.012200 34.186200 1.760250
1300 1 21.263500 34.186200 3.519320
492 1 21.263500 34.186200 0.001175
1495 1 28.514800 34.186200 5.278400
687 1 28.514800 34.186200 1.760250
892 1 1.215770 34.613400 3.519320
84 1 1.215770 34.613400 0.001175
1087 1 8.467060 34.613400 5.278400
279 1 8.467060 34.613400 1.760250
1296 1 15.718300 34.613400 3.519320
488 1 15.718300 34.613400 0.001175
1491 1 22.969600 34.613400 5.278400
683 1 22.969600 34.613400 1.760250
887 1 2.921660 35.040200 5.278400
79 1 2.921660 35.040200 1.760250
1096 1 10.172900 35.040200 3.519320
288 1 10.172900 35.040200 0.001175
1291 1 17.424200 35.040200 5.278400
483 1 17.424200 35.040200 1.760250
1500 1 24.675500 35.040200 3.519320
692 1 24.675500 35.040200 0.001175
894 1 4.627540 35.467100 3.519320
86 1 4.627540 35.467100 0.001175
1090 1 11.878800 35.467100 5.278400
282 1 11.878800 35.467100 1.760250
1298 1 19.130100 35.467100 3.519320
490 1 19.130100 35.467100 0.001175
1494 1 26.381400 35.467100 5.278400
686 1 26.381400 35.467100 1.760250
890 1 6.333590 35.894300 5.278400
82 1 6.333590 35.894300 1.760250
1098 1 13.584900 35.894300 3.519320
290 1 13.584900 35.894300 0.001175
1294 1 20.836200 35.894300 5.278400
486 1 20.836200 35.894300 1.760250
1502 1 28.087500 35.894300 3.519320
694 1 28.087500 35.894300 0.001175
886 1 0.788423 36.321600 5.278400
78 1 0.788423 36.321600 1.760250
1094 1 8.039710 36.321600 3.519320
286 1 8.039710 36.321600 0.001175
1290 1 15.291000 36.321600 5.278400
482 1 15.291000 36.321600 1.760250
1498 1 22.542300 36.321600 3.519320
690 1 22.542300 36.321600 0.001175
895 1 2.494470 36.748600 3.519320
87 1 2.494470 36.748600 0.001175
1089 1 9.745760 36.748600 5.278400
281 1 9.745760 36.748600 1.760250
1299 1 16.997000 36.748600 3.519320
491 1 16.997000 36.748600 0.001175
1493 1 24.248300 36.748600 5.278400
685 1 24.248300 36.748600 1.760250
889 1 4.200430 37.175600 5.278400
81 1 4.200430 37.175600 1.760250
1097 1 11.451700 37.175600 3.519320
289 1 11.451700 37.175600 0.001175
1293 1 18.703000 37.175600 5.278400
485 1 18.703000 37.175600 1.760250
1501 1 25.954300 37.175600 3.519320
693 1 25.954300 37.175600 0.001175
897 1 5.906410 37.602700 3.519320
89 1 5.906410 37.602700 0.001175
1092 1 13.157700 37.602700 5.278400
284 1 13.157700 37.602700 1.760250
1301 1 20.409000 37.602700 3.519320
493 1 20.409000 37.602700 0.001175
1496 1 27.660300 37.602700 5.278400
688 1 27.660300 37.602700 1.760250
1503 1 0.361155 38.029800 3.519320
695 1 0.361155 38.029800 0.001175
891 1 7.612440 38.029800 5.278400
83 1 7.612440 38.029800 1.760250
1099 1 14.863700 38.029800 3.519320
291 1 14.863700 38.029800 0.001175
1295 1 22.115000 38.029800 5.278400
487 1 22.115000 38.029800 1.760250
898 1 2.067210 38.457000 5.278400
90 1 2.067210 38.457000 1.760250
1106 1 9.318500 38.457000 3.519320
298 1 9.318500 38.457000 0.001175
1302 1 16.569800 38.457000 5.278400
494 1 16.569800 38.457000 1.760250
1510 1 23.821100 38.457000 3.519320
702 1 23.821100 38.457000 0.001175
904 1 3.773240 38.884000 3.519320
96 1 3.773240 38.884000 0.001175
1101 1 11.024500 38.884000 5.278400
293 1 11.024500 38.884000 1.760250
1308 1 18.275800 38.884000 3.519320
500 1 18.275800 38.884000 0.001175
1505 1 25.527100 38.884000 5.278400
697 1 25.527100 38.884000 1.760250
901 1 5.479230 39.311100 5.278400
93 1 5.479230 39.311100 1.760250
1109 1 12.730500 39.311100 3.519320
301 1 12.730500 39.311100 0.001175
1305 1 19.981800 39.311100 5.278400
497 1 19.981800 39.311100 1.760250
1513 1 27.233100 39.311100 3.519320
705 1 27.233100 39.311100 0.001175
907 1 7.185230 39.738200 3.519320
99 1 7.185230 39.738200 0.001175
1104 1 14.436500 39.738200 5.278400
296 1 14.436500 39.738200 1.760250
1311 1 21.687800 39.738200 3.519320
503 1 21.687800 39.738200 0.001175
1508 1 28.939100 39.738200 5.278400
700 1 28.939100 39.738200 1.760250
905 1 1.639970 40.165300 3.519320
97 1 1.639970 40.165300 0.001175
1100 1 8.891260 40.165300 5.278400
292 1 8.891260 40.165300 1.760250
1309 1 16.142600 40.165300 3.519320
501 1 16.142600 40.165300 0.001175
1504 1 23.393800 40.165300 5.278400
696 1 23.393800 40.165300 1.760250
900 1 3.346010 40.592400 5.278400
92 1 3.346010 40.592400 1.760250
1107 1 10.597300 40.592400 3.519320
299 1 10.597300 40.592400 0.001175
1304 1 17.848600 40.592400 5.278400
496 1 17.848600 40.592400 1.760250
1511 1 25.099900 40.592400 3.519320
703 1 25.099900 40.592400 0.001175
908 1 5.052030 41.019500 3.519320
100 1 5.052030 41.019500 0.001175
1103 1 12.303300 41.019500 5.278400
295 1 12.303300 41.019500 1.760250
1312 1 19.554600 41.019500 3.519320
504 1 19.554600 41.019500 0.001175
1507 1 26.805900 41.019500 5.278400
699 1 26.805900 41.019500 1.760250
903 1 6.758040 41.446500 5.278400
95 1 6.758040 41.446500 1.760250
1110 1 14.009300 41.446500 3.519320
302 1 14.009300 41.446500 0.001175
1307 1 21.260600 41.446500 5.278400
499 1 21.260600 41.446500 1.760250
1514 1 28.511900 41.446500 3.519320
706 1 28.511900 41.446500 0.001175
899 1 1.212760 41.873600 5.278400
91 1 1.212760 41.873600 1.760250
1108 1 8.464050 41.873600 3.519320
300 1 8.464050 41.873600 0.001175
1303 1 15.715300 41.873600 5.278400
495 1 15.715300 41.873600 1.760250
1512 1 22.966600 41.873600 3.519320
704 1 22.966600 41.873600 0.001175
906 1 2.918780 42.300700 3.519320
98 1 2.918780 42.300700 0.001175
1102 1 10.170100 42.300700 5.278400
294 1 10.170100 42.300700 1.760250
1310 1 17.421400 42.300700 3.519320
502 1 17.421400 42.300700 0.001175
1506 1 24.672700 42.300700 5.278400
698 1 24.672700 42.300700 1.760250
902 2 4.624810 42.727800 5.278400
94 2 4.624810 42.727800 1.760250
1111 2 11.876100 42.727800 3.519320
303 2 11.876100 42.727800 0.001175
1306 2 19.127400 42.727800 5.278400
498 2 19.127400 42.727800 1.760250
1515 2 26.378700 42.727800 3.519320
707 2 26.378700 42.727800 0.001175
909 1 6.330830 43.154900 3.519320
101 1 6.330830 43.154900 0.001175
1105 1 13.582100 43.154900 5.278400
297 1 13.582100 43.154900 1.760250
1313 1 20.833400 43.154900 3.519320
505 1 20.833400 43.154900 0.001175
1509 1 28.084700 43.154900 5.278400
701 1 28.084700 43.154900 1.760250
916 1 0.785555 43.582000 3.519320
108 1 0.785555 43.582000 0.001175
1112 1 8.036840 43.582000 5.278400
304 1 8.036840 43.582000 1.760250
1320 1 15.288100 43.582000 3.519320
512 1 15.288100 43.582000 0.001175
1516 1 22.539400 43.582000 5.278400
708 1 22.539400 43.582000 1.760250
910 1 2.491560 44.009100 5.278400
102 1 2.491560 44.009100 1.760250
1119 1 9.742850 44.009100 3.519320
311 1 9.742850 44.009100 0.001175
1314 1 16.994100 44.009100 5.278400
506 1 16.994100 44.009100 1.760250
1523 1 24.245400 44.009100 3.519320
715 1 24.245400 44.009100 0.001175
918 1 4.197580 44.436200 3.519320
110 1 4.197580 44.436200 0.001175
1114 1 11.448900 44.436200 5.278400
306 1 11.448900 44.436200 1.760250
1322 1 18.700200 44.436200 3.519320
514 1 18.700200 44.436200 0.001175
1518 1 25.951500 44.436200 5.278400
710 1 25.951500 44.436200 1.760250
913 1 5.903620 44.863300 5.278400
105 1 5.903620 44.863300 1.760250
1121 1 13.154900 44.863300 3.519320
313 1 13.154900 44.863300 0.001175
1317 1 20.406200 44.863300 5.278400
509 1 20.406200 44.863300 1.760250
1525 1 27.657500 44.863300 3.519320
717 1 27.657500 44.863300 0.001175
1521 1 0.358357 45.290400 5.278400
713 1 0.358357 45.290400 1.760250
921 1 7.609650 45.290400 3.519320
113 1 7.609650 45.290400 0.001175
1117 1 14.860900 45.290400 5.278400
309 1 14.860900 45.290400 1.760250
1325 1 22.112200 45.290400 3.519320
517 1 22.112200 45.290400 0.001175
917 1 2.064360 45.717500 3.519320
109 1 2.064360 45.717500 0.001175
1113 1 9.315650 45.717500 5.278400
305 1 9.315650 45.717500 1.760250
1321 1 16.566900 45.717500 3.519320
513 1 16.566900 45.717500 0.001175
1517 1 23.818200 45.717500 5.278400
709 1 23.818200 45.717500 1.760250
912 1 3.770360 46.144500 5.278400
104 1 3.770360 46.144500 1.760250