ITEM: TIMESTEP
111
ITEM: NUMBER OF ATOMS
1616
ITEM: BOX BOUNDS pp pp pp
4.8760000000000001e-03 2.9010034999999998e+01
3.4254000000000000e-02 9.3544736000000000e+01
4.2499999999999998e-04 7.0367240000000004e+00
ITEM: ATOMS id type x y z c_csym c_PE 
1020 1 6.75812 0.0810684 5.2784 1.2577e-09 -4.44999 
212 1 6.75812 0.0810708 1.76025 4.67666e-10 -4.44999 
809 1 5.05212 0.50824 3.51932 7.81433e-10 -4.44999 
1 1 5.05212 0.508238 0.00117683 1.32243e-09 -4.44999 
813 1 3.34612 0.935418 5.2784 8.34176e-10 -4.45 
5 1 3.34612 0.935413 1.76025 1.17108e-10 -4.44999 
812 1 1.64012 1.36259 3.51933 2.03281e-09 -4.44999 
4 1 1.64013 1.36259 0.00117411 1.36437e-09 -4.44999 
1021 1 7.18542 1.78975 3.51932 4.79226e-10 -4.44999 
213 1 7.18542 1.78976 0.00117467 8.05162e-10 -4.44999 
811 1 5.47943 2.21691 5.2784 4.70862e-09 -4.44999 
3 1 5.47943 2.21692 1.76025 5.29718e-10 -4.44999 
814 1 3.77344 2.64408 3.51933 1.83868e-09 -4.44999 
6 1 3.77344 2.64408 0.00118219 3.10721e-09 -4.44999 
817 1 2.06743 3.07127 5.2784 7.90468e-09 -4.45 
9 1 2.06744 3.07125 1.76025 1.22883e-09 -4.44999 
820 1 0.361434 3.49844 3.51933 8.83096e-09 -4.45 
12 1 0.36144 3.49843 0.00116995 4.1685e-09 -4.44999 
810 1 5.90674 3.92559 3.51933 7.34707e-09 -4.44999 
2 1 5.90674 3.9256 0.00117948 4.69445e-09 -4.45 
816 1 4.20076 4.35273 5.27842 3.53132e-08 -4.44998 
8 1 4.20075 4.35276 1.76025 3.82139e-09 -4.44999 
815 1 2.49475 4.77992 3.51932 1.7086e-08 -4.45 
7 1 2.49475 4.77992 0.00119487 2.02758e-08 -4.44999 
821 1 0.788735 5.20714 5.2784 6.30072e-08 -4.45001 
13 1 0.788746 5.2071 1.76025 7.64885e-09 -4.44999 
822 1 6.33403 5.63432 5.2784 6.04207e-08 -4.45001 
14 1 6.33404 5.63428 1.76027 2.34166e-08 -4.44999 
823 1 4.62806 6.06141 3.51935 8.44843e-08 -4.44997 
15 1 4.62806 6.06146 0.00118988 4.50113e-08 -4.45 
826 1 2.92209 6.48851 5.27844 2.96714e-07 -4.44995 
18 1 2.92207 6.48862 1.76026 4.43607e-08 -4.45001 
829 1 1.21607 6.91575 3.5193 1.29124e-07 -4.45 
21 1 1.21606 6.91576 0.00120901 1.33353e-07 -4.44999 
1031 1 6.7613 7.34304 3.51935 4.76896e-07 -4.45004 
223 1 6.76134 7.34295 0.00118718 4.61531e-08 -4.44999 
825 1 5.0553 7.77024 5.27841 5.42961e-07 -4.45002 
17 1 5.05537 7.77013 1.76033 2.42272e-07 -4.44999 
824 1 3.3494 8.1972 3.51943 9.15355e-07 -4.44993 
16 1 3.34941 8.19731 0.00116827 5.65328e-07 -4.45001 
831 1 1.64346 8.62419 5.27846 2.22422e-06 -4.44986 
23 1 1.64341 8.62448 1.76024 4.32189e-07 -4.45006 
1036 1 7.18868 9.05156 5.27847 7.91568e-07 -4.44999 
228 1 7.18862 9.05162 1.76024 8.34868e-07 -4.45003 
827 1 5.48254 9.4791 3.51945 3.93448e-06 -4.45013 
19 1 5.4826 9.47877 0.00121734 6.87676e-07 -4.44996 
828 1 3.77656 9.9064 5.27838 5.38428e-06 -4.45012 
20 1 3.7767 9.90582 1.76049 3.23016e-06 -4.44989 
833 1 2.07078 10.3329 3.51961 8.509e-06 -4.44983 
25 1 2.07083 10.3331 0.00101935 6.14414e-06 -4.45002 
834 1 0.364943 10.7597 5.27842 1.32089e-05 -4.44973 
26 1 0.364693 10.7603 1.76015 2.83768e-06 -4.45011 
836 1 5.91009 11.1874 5.2787 6.83236e-06 -4.45009 
28 1 5.9097 11.1875 1.76026 9.69453e-06 -4.45002 
835 1 4.20367 11.6156 3.51946 3.5683e-05 -4.45044 
27 1 4.20381 11.6145 0.00148659 1.11017e-05 -4.44987 
841 1 2.49779 12.0432 5.27822 5.43178e-05 -4.45065 
33 1 2.49809 12.041 1.76077 4.22039e-05 -4.44939 
840 1 0.792317 12.4684 3.51959 5.09494e-05 -4.4498 
32 1 0.792372 12.4685 0.000834205 4.26892e-05 -4.44974 
837 1 6.33783 12.8946 3.51902 9.57169e-05 -4.44946 
29 1 6.33735 12.8963 0.00204492 3.58878e-05 -4.45034 
839 1 4.63145 13.3228 5.27958 9.45264e-05 -4.45041 
31 1 4.63061 13.3244 1.75999 0.000148052 -4.45037 
842 1 2.92446 13.753 3.51832 0.000377737 -4.45139 
34 1 2.92468 13.7501 0.00301003 0.000221887 -4.44935 
845 1 1.21833 14.1803 5.27814 0.000342017 -4.45145 
37 1 1.2203 14.1762 1.7605 0.000295459 -4.44856 
1048 1 6.76471 14.6021 5.27852 0.000436957 -4.44866 
240 1 6.76717 14.6047 1.76106 0.000356806 -4.45039 
838 1 5.05921 15.0271 3.51848 0.000909087 -4.44756 
30 1 5.05843 15.0336 0.00389937 0.000704268 -4.45099 
844 1 3.35083 15.4536 5.28225 0.00131342 -4.4461 
36 1 3.35141 15.4665 1.75835 0.00222559 -4.45301 
843 1 1.64324 15.8902 3.51626 0.00230511 -4.44905 
35 1 1.64742 15.8884 0.00444455 0.00164202 -4.44949 
1049 1 7.18953 16.3181 3.52377 0.00233587 -4.45164 
241 1 7.19606 16.3102 -0.00183166 0.00215857 -4.44725 
849 1 5.48122 16.7296 5.27784 0.00450917 -4.43069 
41 1 5.49311 16.7364 1.76448 0.00469747 -4.44962 
851 1 3.77688 17.1525 3.52712 0.00684704 -4.42898 
43 1 3.7801 17.1771 -0.00213926 0.0102477 -4.45803 
854 1 2.07311 17.5812 5.27769 0.00553963 -4.42901 
46 1 2.0717 17.6135 1.76146 0.0194415 -4.4622 
857 1 0.365821 18.0303 3.51824 5.82276 -4.3047 
49 1 0.363986 18.0108 0.00137417 0.00626603 -4.43286 
848 1 5.9101 18.4537 3.5381 11.6286 -4.17209 
40 1 5.92282 18.4276 -0.00962137 5.82679 -4.29762 
853 1 4.20725 18.8768 5.27396 11.1787 -4.03086 
45 1 4.22109 18.8286 1.77553 5.69091 -4.28534 
852 1 2.50992 19.2899 3.53408 16.9884 -4.0048 
44 1 2.49003 19.2941 -0.0142853 10.8716 -4.16426 
858 1 0.802393 19.6899 5.28664 23.234 -3.67839 
50 1 0.788857 19.7265 1.75606 16.611 -3.87215 
48 1 2.97167 20.8592 1.75209 53.559 -3.1892 
47 1 4.64624 20.4774 0.0331371 33.9186 -3.4193 
42 1 6.33299 20.0976 1.76291 23.4269 -3.65191 
856 1 2.97167 27.1641 5.27024 53.559 -3.1892 
855 1 4.64624 27.5459 3.55129 33.9186 -3.4193 
850 1 6.33299 27.9257 5.28106 23.4269 -3.65191 
859 1 0.788857 28.2969 5.27421 16.611 -3.87215 
51 1 0.802393 28.3335 1.76849 23.234 -3.67839 
866 1 2.49003 28.7292 3.50386 10.8716 -4.16426 
58 1 2.50992 28.7334 0.0159301 16.9884 -4.0048 
861 1 4.22109 29.1947 5.29368 5.69091 -4.28534 
53 1 4.20725 29.1466 1.75581 11.1787 -4.03086 
869 1 5.92282 29.5957 3.50853 5.82679 -4.29762 
61 1 5.9101 29.5696 0.0199458 11.6286 -4.17209 
1475 1 0.363986 30.0125 3.51952 0.00626603 -4.43286 
667 1 0.36582 29.993 8.72864e-05 5.82276 -4.3047 
860 1 2.0717 30.4099 5.2796 0.0194415 -4.4622 
52 1 2.07311 30.4421 1.75954 0.00553964 -4.42901 
867 1 3.7801 30.8462 3.51601 0.0102477 -4.45803 
59 1 3.77688 30.8708 0.0089748 0.00684704 -4.42898 
863 1 5.49311 31.287 5.28263 0.00469747 -4.44962 
55 1 5.48122 31.2937 1.75969 0.00450917 -4.43069 
870 1 7.19606 31.7132 3.51632 0.00215857 -4.44725 
62 1 7.18953 31.7053 0.00561793 0.00233587 -4.45164 
868 1 1.64742 32.1349 3.52259 0.00164202 -4.44949 
60 1 1.64324 32.1332 -0.00189158 0.00230511 -4.44905 
862 1 3.35141 32.5568 5.2765 0.00222559 -4.45301 
54 1 3.35083 32.5697 1.7641 0.00131342 -4.4461 
871 1 5.05843 32.9897 3.52205 0.000704268 -4.45099 
63 1 5.05921 32.9963 0.000334431 0.000909087 -4.44756 
865 1 6.76717 33.4186 5.27921 0.000356806 -4.45039 
57 1 6.76471 33.4212 1.76037 0.000436957 -4.44866 
872 1 1.2203 33.8471 5.27865 0.000295459 -4.44856 
64 1 1.21833 33.8431 1.75999 0.000342017 -4.45145 
878 1 2.92468 34.2732 3.52116 0.000221887 -4.44935 
70 1 2.92446 34.2703 0.000174342 0.000377737 -4.45139 
874 1 4.63061 34.6989 5.27814 0.000148052 -4.45037 
66 1 4.63145 34.7005 1.76144 9.45264e-05 -4.45041 
881 1 6.33735 35.127 3.52019 3.58878e-05 -4.45034 
73 1 6.33783 35.1287 0.000865693 9.57169e-05 -4.44946 
879 1 0.792372 35.5548 3.51898 4.26892e-05 -4.44974 
71 1 0.792317 35.5549 0.00143889 5.09494e-05 -4.4498 
873 1 2.49809 35.9823 5.27892 4.22039e-05 -4.44939 
65 1 2.49779 35.9801 1.76007 5.43178e-05 -4.45065 
882 1 4.20381 36.4088 3.51964 1.11017e-05 -4.44987 
74 1 4.20367 36.4077 0.00131434 3.5683e-05 -4.45044 
876 1 5.9097 36.8358 5.27841 9.69454e-06 -4.45002 
68 1 5.91009 36.8359 1.76055 6.83236e-06 -4.45009 
1484 1 0.364693 37.2631 5.2783 2.83768e-06 -4.45011 
676 1 0.364943 37.2636 1.76027 1.32089e-05 -4.44973 
880 1 2.07083 37.6902 3.51917 6.14414e-06 -4.45002 
72 1 2.07078 37.6904 0.00146324 8.509e-06 -4.44983 
875 1 3.7767 38.1175 5.27864 3.23016e-06 -4.44989 
67 1 3.77656 38.1169 1.76023 5.38428e-06 -4.45012 
883 1 5.4826 38.5445 3.51937 6.87677e-07 -4.44996 
75 1 5.48254 38.5442 0.00130032 3.93448e-06 -4.45013 
877 1 7.18862 38.9717 5.27839 8.34867e-07 -4.45003 
69 1 7.18868 38.9718 1.76032 7.91568e-07 -4.44999 
885 1 1.64341 39.3988 5.27839 4.32187e-07 -4.45006 
77 1 1.64346 39.3991 1.76031 2.22422e-06 -4.44986 
893 1 3.34941 39.826 3.51932 5.65328e-07 -4.45001 
85 1 3.3494 39.8261 0.00127987 9.15356e-07 -4.44993 
888 1 5.05537 40.2532 5.27848 2.42272e-07 -4.44999 
80 1 5.0553 40.2531 1.76026 5.42961e-07 -4.45002 
896 1 6.76134 40.6804 3.51934 4.6153e-08 -4.44999 
88 1 6.7613 40.6803 0.00120005 4.76896e-07 -4.45004 
892 1 1.21606 41.1076 3.51936 1.33353e-07 -4.44999 
84 1 1.21607 41.1076 0.00115395 1.29124e-07 -4.45 
887 1 2.92207 41.5347 5.2784 4.43605e-08 -4.45001 
79 1 2.92209 41.5348 1.76029 2.96715e-07 -4.44995 
894 1 4.62806 41.9619 3.51934 4.50113e-08 -4.45 
86 1 4.62806 41.9619 0.00120345 8.44846e-08 -4.44997 
890 1 6.33404 42.389 5.27842 2.34166e-08 -4.44999 
82 1 6.33402 42.389 1.76025 6.04206e-08 -4.45001 
886 1 0.788746 42.8162 5.2784 7.6489e-09 -4.44999 
78 1 0.788734 42.8162 1.76025 6.30069e-08 -4.45001 
895 1 2.49475 43.2434 3.51934 2.02759e-08 -4.44999 
87 1 2.49475 43.2434 0.00117322 1.70859e-08 -4.45 
889 1 4.20075 43.6706 5.2784 3.8214e-09 -4.44999 
81 1 4.20076 43.6706 1.76027 3.53133e-08 -4.44998 
897 1 5.90674 44.0977 3.51933 4.69445e-09 -4.45 
89 1 5.90674 44.0977 0.00118244 7.34711e-09 -4.44999 
1503 1 0.361439 44.5249 3.51932 4.16848e-09 -4.44999 
695 1 0.361434 44.5249 0.00117731 8.83092e-09 -4.45 
898 1 2.06744 44.9521 5.2784 1.22885e-09 -4.44999 
90 1 2.06743 44.952 1.76025 7.90463e-09 -4.45 
904 1 3.77344 45.3792 3.51933 3.10723e-09 -4.44999 
96 1 3.77344 45.3792 0.00117702 1.83868e-09 -4.44999 
901 1 5.47943 45.8064 5.2784 5.2972e-10 -4.44999 
93 1 5.47943 45.8064 1.76025 4.70863e-09 -4.44999 
907 1 7.18542 46.2336 3.51932 8.05156e-10 -4.44999 
99 1 7.18542 46.2336 0.00117518 4.79234e-10 -4.44999 
905 1 1.64013 46.6607 3.51932 1.36437e-09 -4.44999 
97 1 1.64012 46.6607 0.00117749 2.03281e-09 -4.44999 
900 1 3.34612 47.0879 5.2784 1.17109e-10 -4.44999 
92 1 3.34612 47.0879 1.76025 8.34169e-10 -4.45 
908 1 5.05212 47.5151 3.51933 1.32243e-09 -4.44999 
100 1 5.05212 47.5151 0.00117548 7.81432e-10 -4.44999 
903 1 6.75812 47.9422 5.2784 4.67669e-10 -4.44999 
95 1 6.75812 47.9423 1.76025 1.25771e-09 -4.44999 
899 1 1.21282 48.3694 5.2784 8.17171e-10 -4.44999 
91 1 1.21282 48.3694 1.76025 2.93218e-10 -4.44999 
906 1 2.91881 48.7966 3.51932 1.90305e-09 -4.44999 
98 1 2.91881 48.7966 0.00117587 2.02134e-09 -4.44999 
902 1 4.62481 49.2237 5.2784 4.15216e-10 -4.44999 
94 1 4.62481 49.2237 1.76025 3.546e-10 -4.44999 
909 1 6.33081 49.6509 3.51932 3.73923e-09 -4.45 
101 1 6.33081 49.6509 0.00117439 3.30749e-09 -4.45 
916 1 0.785513 50.0781 3.51932 1.62827e-09 -4.44999 
108 1 0.785513 50.0781 0.00117408 1.86031e-09 -4.44999 
910 1 2.4915 50.5052 5.2784 4.95523e-09 -4.44999 
102 1 2.4915 50.5053 1.76025 4.36285e-09 -4.44999 
918 1 4.19749 50.9324 3.51932 7.73023e-09 -4.44999 
110 1 4.19749 50.9324 0.00117482 7.70662e-09 -4.44999 
913 1 5.9035 51.3596 5.2784 4.53502e-09 -4.45 
105 1 5.9035 51.3596 1.76025 4.27983e-09 -4.45 
1521 1 0.358216 51.7868 5.2784 2.16563e-08 -4.45 
713 1 0.358216 51.7868 1.76025 2.12051e-08 -4.45 
917 1 2.0642 52.214 3.51932 7.98592e-09 -4.44999 
109 1 2.0642 52.214 0.00117428 8.03486e-09 -4.44999 
912 1 3.77017 52.6411 5.2784 3.91823e-08 -4.44998 
104 1 3.77017 52.6411 1.76025 3.85542e-08 -4.44998 
919 1 5.47617 53.0682 3.51932 3.87552e-08 -4.44998 
111 1 5.47617 53.0682 0.00117432 3.86769e-08 -4.44998 
915 1 7.1822 53.4955 5.2784 4.53705e-08 -4.45001 
107 1 7.1822 53.4955 1.76025 4.50336e-08 -4.45001 
911 1 1.63693 53.9227 5.2784 1.35663e-07 -4.45002 
103 1 1.63693 53.9227 1.76025 1.3521e-07 -4.45002 
920 1 3.34288 54.3498 3.51932 4.9821e-08 -4.44999 
112 1 3.34288 54.3498 0.00117422 4.97916e-08 -4.44999 
914 1 5.04882 54.7769 5.2784 3.0313e-07 -4.44996 
106 1 5.04882 54.7769 1.76025 3.02525e-07 -4.44996 
922 1 6.75484 55.204 3.51932 1.90443e-07 -4.44998 
114 1 6.75484 55.204 0.00117414 1.90354e-07 -4.44998 
930 1 1.20964 55.6313 3.51932 4.31358e-07 -4.45004 
122 1 1.20964 55.6313 0.00117418 4.31014e-07 -4.45004 
924 1 2.91567 56.0586 5.2784 8.0529e-07 -4.45004 
116 1 2.91567 56.0586 1.76025 8.04893e-07 -4.45004 
931 1 4.62153 56.4857 3.51932 4.22341e-07 -4.44996 
123 1 4.62153 56.4857 0.00117416 4.22286e-07 -4.44996 
927 1 6.3274 56.9125 5.2784 2.19133e-06 -4.4499 
119 1 6.3274 56.9125 1.76025 2.1908e-06 -4.4499 
923 1 0.782216 57.3398 5.2784 9.35597e-07 -4.44998 
115 1 0.782216 57.3398 1.76025 9.35526e-07 -4.44998 
932 1 2.48847 57.7674 3.51932 3.80368e-06 -4.45012 
124 1 2.48847 57.7674 0.00117416 3.80341e-06 -4.45012 
926 1 4.19446 58.1948 5.2784 4.3934e-06 -4.45009 
118 1 4.19446 58.1948 1.76025 4.3931e-06 -4.45009 
934 1 5.90008 58.6214 3.51932 4.10356e-06 -4.44987 
126 1 5.90008 58.6214 0.00117413 4.1035e-06 -4.44987 
1540 1 0.354541 59.0479 3.51932 1.45526e-05 -4.44976 
732 1 0.354541 59.0479 0.00117413 1.45522e-05 -4.44976 
925 1 2.06095 59.4754 5.2784 5.26446e-06 -4.45001 
117 1 2.06095 59.4754 1.76025 5.26443e-06 -4.45001 
933 1 3.76754 59.9038 3.51932 3.08258e-05 -4.45037 
125 1 3.76754 59.9038 0.00117414 3.08257e-05 -4.45037 
928 1 5.47335 60.3312 5.2784 2.21579e-05 -4.45019 
120 1 5.47335 60.3312 1.76025 2.21577e-05 -4.45019 
935 1 7.17836 60.7568 3.51932 3.93947e-05 -4.44952 
127 1 7.17836 60.7568 0.00117412 3.93946e-05 -4.44952 
942 1 1.6326 61.1826 3.51932 9.04288e-05 -4.44943 
134 1 1.6326 61.1826 0.00117413 9.04286e-05 -4.44943 
937 1 3.33986 61.6112 5.2784 4.34476e-05 -4.45034 
129 1 3.33986 61.6112 1.76025 4.34477e-05 -4.45034 
945 1 5.04741 62.0413 3.51932 0.000241871 -4.45089 
137 1 5.04741 62.0413 0.00117413 0.000241871 -4.45089 
940 1 6.75233 62.4683 5.2784 0.000115441 -4.44993 
132 1 6.75233 62.4683 1.76025 0.000115441 -4.44993 
936 1 1.20413 62.8912 5.2784 0.000352787 -4.44879 
128 1 1.20413 62.8912 1.76025 0.000352787 -4.44879 
943 1 2.91 63.3153 3.51932 0.000506148 -4.44895 
135 1 2.91 63.3153 0.00117413 0.000506148 -4.44895 
939 1 4.6205 63.7471 5.2784 0.000437786 -4.45001 
131 1 4.6205 63.7471 1.76025 0.000437786 -4.45001 
946 1 6.32818 64.1829 3.51932 0.00172434 -4.45209 
138 1 6.32818 64.1829 0.00117413 0.00172434 -4.45209 
944 1 0.77852 64.6063 3.51932 0.000735294 -4.45043 
136 1 0.77852 64.6063 0.00117413 0.000735294 -4.45043 
938 1 2.48155 65.0203 5.2784 0.00290216 -4.44409 
130 1 2.48155 65.0203 1.76025 0.00290216 -4.44409 
947 1 4.18582 65.4448 3.51932 0.00329999 -4.44426 
139 1 4.18582 65.4448 0.00117413 0.00329999 -4.44426 
941 1 5.89912 65.8901 5.2784 0.00645969 -4.45489 
133 1 5.89912 65.8901 1.76025 0.00645969 -4.45489 
1548 1 0.364303 66.3302 5.2784 0.0187452 -4.45642 
740 1 0.364303 66.3302 1.76025 0.0187452 -4.45642 
955 1 2.06156 66.7371 3.51932 0.0262225 -4.42656 
147 1 2.06156 66.7371 0.00117413 0.0262225 -4.42656 
950 1 3.73981 67.1571 5.2784 0.0311716 -4.44048 
142 1 3.73981 67.1571 1.76025 0.0311716 -4.44048 
957 1 5.44457 67.5681 3.51932 0.0433442 -4.45191 
149 1 5.44457 67.5681 0.00117413 0.0433442 -4.45191 
953 1 7.22162 68.0142 5.2784 0.493113 -4.36361 
145 1 7.22162 68.0142 1.76025 0.493113 -4.36361 
949 1 1.65431 68.5384 5.2784 0.581903 -4.30763 
141 1 1.65431 68.5384 1.76025 0.581903 -4.30763 
958 1 3.25257 68.8956 3.51932 0.581798 -4.35478 
150 1 3.25257 68.8956 0.00117413 0.581798 -4.35478 
952 1 5.04634 69.2309 5.2784 2.84746 -4.3386 
144 1 5.04634 69.2309 1.76025 2.84746 -4.3386 
954 1 6.79629 69.6109 3.51932 8.59086 -4.11549 
146 1 6.79629 69.6109 0.00117413 8.59086 -4.11549 
956 1 1.09129 70.7669 3.51932 8.1665 -4.28715 
148 1 1.09129 70.7669 0.00117413 8.1665 -4.28715 
951 1 2.90453 70.7669 5.2784 3.5224 -4.40551 
143 1 2.90453 70.7669 1.76025 3.5224 -4.40551 
959 1 4.67021 70.7669 3.51932 7.51125 -4.07063 
151 1 4.67021 70.7669 0.00117413 7.51125 -4.07063 
1168 1 6.79629 71.9229 3.51932 8.59086 -4.11549 
360 1 6.79629 71.9229 0.00117413 8.59086 -4.11549 
961 1 5.04634 72.3029 5.2784 2.84746 -4.3386 
153 1 5.04634 72.3029 1.76025 2.84746 -4.3386 
960 1 3.25257 72.6382 3.51932 0.581799 -4.35478 
152 1 3.25257 72.6382 0.00117413 0.581799 -4.35478 
967 1 1.65431 72.9954 5.2784 0.581904 -4.30763 
159 1 1.65431 72.9954 1.76025 0.581904 -4.30763 
1172 1 7.22162 73.5196 5.2784 0.493114 -4.36361 
364 1 7.22162 73.5196 1.76025 0.493114 -4.36361 
962 1 5.44457 73.9657 3.51932 0.0433441 -4.45191 
154 1 5.44457 73.9657 0.00117413 0.0433441 -4.45191 
965 1 3.73981 74.3767 5.2784 0.0311715 -4.44048 
157 1 3.73981 74.3767 1.76025 0.0311715 -4.44048 
969 1 2.06156 74.7967 3.51932 0.0262225 -4.42656 
161 1 2.06156 74.7967 0.00117413 0.0262225 -4.42656 
972 1 0.364303 75.2036 5.2784 0.0187451 -4.45642 
164 1 0.364303 75.2036 1.76025 0.0187451 -4.45642 
964 1 5.89912 75.6437 5.2784 0.00645969 -4.45489 
156 1 5.89912 75.6437 1.76025 0.00645969 -4.45489 
963 1 4.18582 76.089 3.51932 0.00329998 -4.44426 
155 1 4.18582 76.089 0.00117413 0.00329998 -4.44426 
971 1 2.48155 76.5135 5.2784 0.00290216 -4.44409 
163 1 2.48155 76.5135 1.76025 0.00290216 -4.44409 
970 1 0.77852 76.9275 3.51932 0.000735293 -4.45043 
162 1 0.77852 76.9275 0.00117413 0.000735294 -4.45043 
973 1 6.32818 77.3509 3.51932 0.00172434 -4.45209 
165 1 6.32818 77.3509 0.00117413 0.00172434 -4.45209 
975 1 4.6205 77.7867 5.2784 0.000437786 -4.45001 
167 1 4.6205 77.7867 1.76025 0.000437786 -4.45001 
977 1 2.91 78.2185 3.51932 0.000506146 -4.44895 
169 1 2.91 78.2185 0.00117413 0.000506146 -4.44895 
980 1 1.20413 78.6426 5.2784 0.000352786 -4.44879 
172 1 1.20413 78.6426 1.76025 0.000352787 -4.44879 
1185 1 6.75233 79.0655 5.2784 0.000115441 -4.44993 
377 1 6.75233 79.0655 1.76025 0.000115441 -4.44993 
974 1 5.04741 79.4925 3.51932 0.000241871 -4.45089 
166 1 5.04741 79.4925 0.00117413 0.000241871 -4.45089 
979 1 3.33986 79.9226 5.2784 4.34477e-05 -4.45034 
171 1 3.33986 79.9226 1.76025 4.34476e-05 -4.45034 
978 1 1.6326 80.3512 3.51932 9.04284e-05 -4.44943 
170 1 1.6326 80.3512 0.00117414 9.04286e-05 -4.44943 
1186 1 7.17836 80.777 3.51932 3.93946e-05 -4.44952 
378 1 7.17836 80.777 0.00117413 3.93946e-05 -4.44952 
976 1 5.47335 81.2026 5.2784 2.21576e-05 -4.45019 
168 1 5.47335 81.2026 1.76025 2.21578e-05 -4.45019 
981 1 3.76754 81.63 3.51932 3.08256e-05 -4.45037 
173 1 3.76754 81.63 0.00117414 3.08258e-05 -4.45037 
982 1 2.06095 82.0584 5.2784 5.26443e-06 -4.45001 
174 1 2.06095 82.0584 1.76025 5.26445e-06 -4.45001 
985 1 0.354541 82.4859 3.51932 1.45522e-05 -4.44976 
177 1 0.354541 82.4859 0.00117414 1.45526e-05 -4.44976 
986 1 5.90008 82.9124 3.51932 4.10349e-06 -4.44987 
178 1 5.90008 82.9124 0.00117414 4.10355e-06 -4.44987 
989 1 4.19446 83.339 5.2784 4.39309e-06 -4.45009 
181 1 4.19446 83.339 1.76025 4.39339e-06 -4.45009 
988 1 2.48847 83.7664 3.51932 3.80341e-06 -4.45012 
180 1 2.48847 83.7664 0.00117415 3.80368e-06 -4.45012 
994 1 0.782216 84.1941 5.2784 9.35524e-07 -4.44998 
186 1 0.782216 84.1941 1.76025 9.35595e-07 -4.44998 
987 1 6.3274 84.6213 5.2784 2.1908e-06 -4.4499 
179 1 6.3274 84.6213 1.76025 2.19133e-06 -4.4499 
990 1 4.62153 85.0481 3.51932 4.22285e-07 -4.44996 
182 1 4.62153 85.0481 0.00117418 4.22341e-07 -4.44996 
993 1 2.91567 85.4752 5.2784 8.04892e-07 -4.45004 
185 1 2.91567 85.4752 1.76025 8.05289e-07 -4.45004 
995 1 1.20964 85.9025 3.51932 4.31014e-07 -4.45004 
187 1 1.20964 85.9025 0.00117416 4.31358e-07 -4.45004 
1197 1 6.75484 86.3298 3.51932 1.90353e-07 -4.44998 
389 1 6.75484 86.3298 0.00117412 1.90442e-07 -4.44998 
992 1 5.04882 86.7569 5.2784 3.02524e-07 -4.44996 
184 1 5.04882 86.7569 1.76025 3.03129e-07 -4.44996 
991 1 3.34288 87.184 3.51932 4.97914e-08 -4.44999 
183 1 3.34288 87.184 0.00117428 4.98208e-08 -4.44999 
997 1 1.63693 87.6111 5.2784 1.3521e-07 -4.45002 
189 1 1.63693 87.6111 1.76025 1.35662e-07 -4.45002 
1200 1 7.1822 88.0384 5.2784 4.50337e-08 -4.45001 
392 1 7.1822 88.0384 1.76025 4.53706e-08 -4.45001 
999 1 5.47617 88.4656 3.51932 3.86768e-08 -4.44998 
191 1 5.47617 88.4656 0.00117423 3.8755e-08 -4.44998 
1002 1 3.77017 88.8927 5.2784 3.8554e-08 -4.44998 
194 1 3.77017 88.8927 1.76025 3.91822e-08 -4.44998 
1005 1 2.0642 89.3198 3.51932 8.03482e-09 -4.44999 
197 1 2.0642 89.3198 0.00117446 7.98588e-09 -4.44999 
1008 1 0.358217 89.747 5.2784 2.12051e-08 -4.45 
200 1 0.358217 89.747 1.76025 2.16564e-08 -4.45 
1001 1 5.9035 90.1742 5.2784 4.27984e-09 -4.45 
193 1 5.9035 90.1742 1.76025 4.53504e-09 -4.45 
1000 1 4.19749 90.6014 3.51932 7.70657e-09 -4.44999 
192 1 4.19749 90.6014 0.0011745 7.73018e-09 -4.44999 
1007 1 2.4915 91.0286 5.2784 4.36284e-09 -4.44999 
199 1 2.4915 91.0286 1.76025 4.95521e-09 -4.44999 
1006 1 0.785513 91.4557 3.51932 1.86032e-09 -4.44999 
198 1 0.785513 91.4557 0.00117456 1.62827e-09 -4.44999 
1003 1 6.33081 91.8829 3.51932 3.30748e-09 -4.45 
195 1 6.33081 91.8829 0.00117474 3.73923e-09 -4.45 
1004 1 4.62481 92.3101 5.2784 3.54597e-10 -4.44999 
196 1 4.62481 92.3101 1.76025 4.15215e-10 -4.44999 
1009 1 2.91881 92.7372 3.51933 2.02134e-09 -4.44999 
201 1 2.91881 92.7372 0.00117481 1.90305e-09 -4.44999 
1010 1 1.21282 93.1644 5.2784 2.93216e-10 -4.44999 
202 1 1.21282 93.1644 1.76025 8.17168e-10 -4.44999 
1222 1 14.0094 0.0810684 3.51932 1.25783e-09 -4.44999 
414 1 14.0094 0.0810708 0.00117401 4.67742e-10 -4.44999 
1012 1 12.3034 0.508239 5.2784 7.81514e-10 -4.44999 
204 1 12.3034 0.508238 1.76025 1.32253e-09 -4.44999 
1014 1 10.5974 0.935418 3.51932 8.34134e-10 -4.45 
206 1 10.5974 0.935413 0.00117073 1.17112e-10 -4.44999 
1017 1 8.89141 1.36259 5.2784 2.03281e-09 -4.44999 
209 1 8.89142 1.36259 1.76025 1.36437e-09 -4.44999 
1223 1 14.4367 1.78975 5.2784 4.79286e-10 -4.44999 
415 1 14.4367 1.78976 1.76025 8.05075e-10 -4.44999 
1011 1 12.7307 2.21691 3.51932 4.70889e-09 -4.44999 
203 1 12.7307 2.21692 0.00117199 5.29789e-10 -4.44999 
1016 1 11.0247 2.64408 5.2784 1.83872e-09 -4.44999 
208 1 11.0247 2.64408 1.76024 3.10733e-09 -4.44999 
1015 1 9.31872 3.07127 3.51932 7.90447e-09 -4.45 
207 1 9.31873 3.07125 0.00116841 1.22886e-09 -4.44999 
1022 1 7.61272 3.49844 5.2784 8.83091e-09 -4.45 
214 1 7.61273 3.49843 1.76025 4.16847e-09 -4.44999 
1013 1 13.158 3.92559 5.27839 7.34735e-09 -4.44999 
205 1 13.158 3.9256 1.76024 4.69437e-09 -4.45 
1018 1 11.452 4.35273 3.51931 3.53139e-08 -4.44998 
210 1 11.452 4.35276 0.00116919 3.82146e-09 -4.44999 
1019 1 9.74604 4.77992 5.2784 1.7086e-08 -4.45 
211 1 9.74604 4.77992 1.76023 2.0276e-08 -4.44999 
1023 1 8.04002 5.20714 3.51933 6.30065e-08 -4.45001 
215 1 8.04004 5.2071 0.00116988 7.6489e-09 -4.44999 
1024 1 13.5853 5.63432 3.51932 6.04198e-08 -4.45001 
216 1 13.5853 5.63428 0.00115403 2.34165e-08 -4.44999 
1026 1 11.8794 6.06141 5.27837 8.44853e-08 -4.44997 
218 1 11.8794 6.06146 1.76023 4.50112e-08 -4.45 
1025 1 10.1734 6.48851 3.51928 2.96716e-07 -4.44995 
217 1 10.1734 6.48862 0.00116795 4.43604e-08 -4.45001 
1032 1 8.46736 6.91575 5.27842 1.29124e-07 -4.45 
224 1 8.46735 6.91576 1.76021 1.33353e-07 -4.44999 
1236 1 14.0126 7.34304 5.27837 4.76894e-07 -4.45004 
428 1 14.0126 7.34295 1.76024 4.61529e-08 -4.44999 
1027 1 12.3066 7.77024 3.51932 5.42959e-07 -4.45002 
219 1 12.3067 7.77013 0.00109259 2.42272e-07 -4.44999 
1030 1 10.6007 8.1972 5.27829 9.15358e-07 -4.44993 
222 1 10.6007 8.19731 1.76025 5.65329e-07 -4.45001 
1033 1 8.89475 8.62419 3.51926 2.22422e-06 -4.44986 
225 1 8.8947 8.62448 0.00118522 4.32187e-07 -4.45006 
1234 1 14.44 9.05156 3.51926 7.91569e-07 -4.44999 
426 1 14.4399 9.05162 0.00118188 8.34867e-07 -4.45003 
1029 1 12.7338 9.4791 5.27827 3.93448e-06 -4.45013 
221 1 12.7339 9.47877 1.76021 6.87677e-07 -4.44996 
1028 1 11.0279 9.9064 3.51935 5.38428e-06 -4.45012 
220 1 11.028 9.90582 0.000936227 3.23017e-06 -4.44989 
1035 1 9.32207 10.3329 5.27811 8.509e-06 -4.44983 
227 1 9.32212 10.3331 1.7604 6.14414e-06 -4.45002 
1034 1 7.61623 10.7597 3.5193 1.32089e-05 -4.44973 
226 1 7.61598 10.7603 0.00127255 2.83768e-06 -4.45011 
1037 1 13.1614 11.1874 3.51902 6.83236e-06 -4.45009 
229 1 13.161 11.1875 0.00115973 9.69453e-06 -4.45002 
1040 1 11.455 11.6156 5.27826 3.5683e-05 -4.45044 
232 1 11.4551 11.6145 1.75994 1.11017e-05 -4.44987 
1042 1 9.74908 12.0432 3.5195 5.43178e-05 -4.45065 
234 1 9.74938 12.041 0.000654454 4.22039e-05 -4.44939 
1045 1 8.04361 12.4684 5.27813 5.09494e-05 -4.4498 
237 1 8.04366 12.4685 1.76059 4.26892e-05 -4.44974 
1039 1 13.5891 12.8946 5.27871 9.57169e-05 -4.44946 
231 1 13.5886 12.8963 1.75938 3.58878e-05 -4.45034 
1038 1 11.8827 13.3228 3.51814 9.45264e-05 -4.45041 
230 1 11.8819 13.3244 0.00143257 0.000148052 -4.45037 
1044 1 10.1757 13.753 5.2794 0.000377737 -4.45139 
236 1 10.176 13.7501 1.75841 0.000221887 -4.44935 
1043 1 8.46962 14.1803 3.51959 0.000342017 -4.45145 
235 1 8.47159 14.1762 0.000921187 0.000295459 -4.44856 
1250 1 14.016 14.6021 3.5192 0.000436957 -4.44866 
442 1 14.0185 14.6047 0.000364529 0.000356806 -4.45039 
1041 1 12.3105 15.0271 5.27924 0.000909087 -4.44756 
233 1 12.3097 15.0336 1.75752 0.000704268 -4.45099 
1046 1 10.6021 15.4536 3.51547 0.00131342 -4.4461 
238 1 10.6027 15.4665 0.00307259 0.00222559 -4.45301 
1047 1 8.89453 15.8902 5.28146 0.00230511 -4.44905 
239 1 8.89871 15.8884 1.75698 0.00164202 -4.44949 
1251 1 14.4408 16.3181 5.27395 0.00233587 -4.45164 
443 1 14.4473 16.3102 1.76325 0.00215857 -4.44725 
1050 1 12.7325 16.7296 3.51988 0.00450917 -4.43069 
242 1 12.7444 16.7364 -0.00305889 0.00469747 -4.44962 
1054 1 11.0282 17.1525 5.2706 0.00684704 -4.42898 
246 1 11.0314 17.1771 1.76356 0.0102477 -4.45803 
1053 1 9.3244 17.5812 3.52003 0.00553963 -4.42901 
245 1 9.32299 17.6135 -3.22805e-05 0.0194415 -4.4622 
1059 1 7.61711 18.0303 5.27949 5.82276 -4.3047 
251 1 7.61528 18.0108 1.76005 0.00626603 -4.43286 
1052 1 13.1614 18.4537 5.25963 11.6286 -4.17209 
244 1 13.1741 18.4276 1.77104 5.82679 -4.29762 
1055 1 11.4585 18.8768 3.52376 11.1787 -4.03086 
247 1 11.4724 18.8286 -0.0141115 5.69091 -4.28534 
1058 1 9.76121 19.2899 5.26364 16.9884 -4.0048 
250 1 9.74132 19.2941 1.77571 10.8716 -4.16426 
1060 1 8.05368 19.6899 3.51108 23.234 -3.67839 
252 1 8.04015 19.7265 0.00535972 16.611 -3.87215 
248 1 10.223 20.8592 0.00933552 53.559 -3.1892 
249 1 11.8975 20.4774 1.72829 33.9186 -3.4193 
243 1 13.5843 20.0976 -0.0014827 23.4269 -3.65191 
1056 1 10.223 27.1641 3.52749 53.559 -3.1892 
1057 1 11.8975 27.5459 5.24644 33.9186 -3.4193 
1051 1 13.5843 27.9257 3.51667 23.4269 -3.65191 
1061 1 8.04015 28.2969 3.52351 16.611 -3.87215 
253 1 8.05368 28.3335 -0.0070649 23.234 -3.67839 
1062 1 9.74132 28.7292 5.29386 10.8716 -4.16426 
254 1 9.76121 28.7334 1.74549 16.9884 -4.0048 
1068 1 11.4724 29.1947 3.50404 5.69091 -4.28534 
260 1 11.4585 29.1466 0.00560976 11.1787 -4.03086 
1065 1 13.1741 29.5957 5.28919 5.82679 -4.29762 
257 1 13.1614 29.5696 1.74148 11.6286 -4.17209 
864 1 7.61528 30.0125 5.2782 0.00626603 -4.43286 
56 1 7.61711 29.993 1.76134 5.82276 -4.3047 
1069 1 9.32299 30.4099 3.51812 0.0194415 -4.4622 
261 1 9.32439 30.4421 0.00188183 0.00553964 -4.42901 
1064 1 11.0314 30.8462 5.28171 0.0102477 -4.45803 
256 1 11.0282 30.8708 1.75245 0.00684704 -4.42898 
1072 1 12.7444 31.287 3.51509 0.00469747 -4.44962 
264 1 12.7325 31.2937 0.0017305 0.00450917 -4.43069 
1067 1 14.4473 31.7132 5.2814 0.00215857 -4.44725 
259 1 14.4408 31.7053 1.75581 0.00233587 -4.45164 
1063 1 8.89871 32.1349 5.27513 0.00164202 -4.44949 
255 1 8.89453 32.1332 1.76331 0.00230511 -4.44905 
1070 1 10.6027 32.5568 3.52122 0.00222559 -4.45301 
262 1 10.6021 32.5697 -0.00267951 0.00131342 -4.4461 
1066 1 12.3097 32.9897 5.27567 0.000704268 -4.45099 
258 1 12.3105 32.9963 1.76109 0.000909087 -4.44756 
1073 1 14.0185 33.4186 3.51851 0.000356806 -4.45039 
265 1 14.016 33.4212 0.00105016 0.000436957 -4.44866 
1081 1 8.47159 33.8471 3.51907 0.000295459 -4.44856 
273 1 8.46962 33.8431 0.0014355 0.000342017 -4.45145 
1075 1 10.176 34.2732 5.27656 0.000221887 -4.44935 
267 1 10.1757 34.2703 1.76125 0.000377737 -4.45139 
1083 1 11.8819 34.6989 3.51958 0.000148052 -4.45037 
275 1 11.8827 34.7005 -1.24592e-05 9.45264e-05 -4.45041 
1078 1 13.5886 35.127 5.27753 3.58878e-05 -4.45034 
270 1 13.5891 35.1287 1.76056 9.57169e-05 -4.44946 
1074 1 8.04366 35.5548 5.27874 4.26892e-05 -4.44974 
266 1 8.04361 35.5549 1.75998 5.09494e-05 -4.4498 
1082 1 9.74938 35.9823 3.5188 4.2204e-05 -4.44939 
274 1 9.74908 35.9801 0.00135133 5.43178e-05 -4.45065 
1077 1 11.4551 36.4088 5.27809 1.11017e-05 -4.44987 
269 1 11.455 36.4077 1.76011 3.5683e-05 -4.45044 
1084 1 13.161 36.8358 3.51931 9.69454e-06 -4.45002 
276 1 13.1614 36.8359 0.000874055 6.83236e-06 -4.45009 
884 1 7.61598 37.2631 3.51942 2.83768e-06 -4.45011 
76 1 7.61623 37.2636 0.00115376 1.32089e-05 -4.44973 
1076 1 9.32212 37.6902 5.27855 6.14414e-06 -4.45002 
268 1 9.32207 37.6904 1.75996 8.50901e-06 -4.44983 
1085 1 11.028 38.1175 3.51909 3.23017e-06 -4.44989 
277 1 11.0279 38.1169 0.00119704 5.38428e-06 -4.45012 
1079 1 12.7339 38.5445 5.27836 6.87677e-07 -4.44996 
271 1 12.7338 38.5442 1.76012 3.93447e-06 -4.45013 
1086 1 14.4399 38.9717 3.51933 8.34866e-07 -4.45003 
278 1 14.44 38.9718 0.00110728 7.91569e-07 -4.44999 
1093 1 8.8947 39.3988 3.51933 4.32186e-07 -4.45006 
285 1 8.89475 39.3991 0.00111467 2.22422e-06 -4.44986 
1088 1 10.6007 39.826 5.2784 5.65328e-07 -4.45001 
280 1 10.6007 39.8261 1.76014 9.15359e-07 -4.44993 
1095 1 12.3067 40.2532 3.51924 2.42272e-07 -4.44999 
287 1 12.3066 40.2531 0.00116721 5.42959e-07 -4.45002 
1091 1 14.0126 40.6804 5.27839 4.61528e-08 -4.44999 
283 1 14.0126 40.6803 1.76022 4.76894e-07 -4.45004 
1087 1 8.46734 41.1076 5.27836 1.33353e-07 -4.44999 
279 1 8.46736 41.1076 1.76027 1.29124e-07 -4.45 
1096 1 10.1734 41.5347 3.51932 4.43602e-08 -4.45001 
288 1 10.1734 41.5348 0.0011351 2.96717e-07 -4.44995 
1090 1 11.8794 41.9619 5.27838 4.50112e-08 -4.45 
282 1 11.8794 41.9619 1.76022 8.44855e-08 -4.44997 
1098 1 13.5853 42.389 3.5193 2.34165e-08 -4.44999 
290 1 13.5853 42.389 0.00117051 6.04198e-08 -4.45001 
1094 1 8.04004 42.8162 3.51932 7.64895e-09 -4.44999 
286 1 8.04002 42.8162 0.00117573 6.30063e-08 -4.45001 
1089 1 9.74604 43.2434 5.27838 2.0276e-08 -4.44999 
281 1 9.74604 43.2434 1.76025 1.70859e-08 -4.45 
1097 1 11.452 43.6706 3.51932 3.82147e-09 -4.44999 