ITEM: TIMESTEP
84
ITEM: NUMBER OF ATOMS
404
ITEM: BOX BOUNDS pp pp pp
-1.0000000000000000e-03 1.4513331802174200e+01
-1.0000000000000000e-03 8.7079990813045001e+01
-1.0000000000000000e-03 3.5200000000000000e+00
ITEM: ATOMS id type x y z c_csym c_peratom 
1 1 5.05088 0.46913 -0.000249358 3.06157e-08 -4.44997 
2 1 5.90537 3.88867 -0.000249375 3.15999e-07 -4.45 
3 1 5.47815 2.17889 1.76025 2.0866e-08 -4.44999 
4 1 1.63578 1.32399 -0.000248941 7.03906e-07 -4.44998 
5 1 3.34335 0.896575 1.76025 1.28342e-07 -4.44997 
6 1 3.77066 2.60625 -0.000249138 1.69204e-07 -4.44997 
7 1 2.49065 4.74339 -0.000249093 4.66747e-07 -4.44995 
8 1 4.19797 4.31607 1.76025 1.23303e-07 -4.44997 
9 1 2.06327 3.03366 1.76025 1.90945e-07 -4.44996 
10 1 -0.49884 0.0416481 -0.000249042 2.525e-07 -4.44998 
11 1 -0.0715795 1.75148 1.76025 1.24414e-07 -4.44999 
12 1 0.355738 3.46117 -0.000249221 8.61132e-08 -4.44998 
13 1 0.78313 5.17074 1.76025 6.08366e-07 -4.44997 
14 1 6.33275 5.59835 1.76025 4.62501e-07 -4.45003 
15 1 4.62521 6.026 -0.00024972 1.59222e-06 -4.45004 
16 1 3.3452 8.16347 -0.000250077 5.59414e-06 -4.45007 
17 1 5.05263 7.73571 1.76025 3.45284e-06 -4.45011 
18 1 2.91798 6.45334 1.76025 3.86121e-07 -4.44996 
19 1 5.48033 9.44474 -0.000250176 4.81453e-06 -4.45001 
20 1 3.77217 9.87341 1.76025 2.71566e-05 -4.45034 
21 1 1.21073 6.88043 -0.000249671 2.09111e-06 -4.4499 
22 1 -0.0690016 9.01705 -0.000249839 1.5765e-05 -4.44977 
23 1 1.63817 8.5904 1.76025 3.94989e-06 -4.44986 
24 1 -0.496781 7.3078 1.76025 1.57929e-06 -4.44998 
25 1 2.06491 10.3012 -0.000250063 2.55662e-05 -4.45016 
26 1 0.358321 10.727 1.76025 3.52627e-05 -4.44951 
27 1 4.19972 11.5818 -0.000250314 4.1574e-05 -4.45034 
28 1 5.90839 11.153 1.76025 8.54844e-05 -4.44944 
29 1 6.3366 12.8627 -0.000250125 0.000343591 -4.44878 
30 1 5.0573 14.9928 -0.000250404 0.00287905 -4.44416 
31 1 4.62916 13.287 1.76025 0.000488481 -4.44899 
32 1 0.784077 12.4394 -0.000250082 0.000115636 -4.44988 
33 1 2.49058 12.0122 1.76025 0.000231255 -4.45085 
34 1 2.91706 13.719 -0.000250259 0.000443187 -4.45001 
35 1 1.63658 15.8633 -0.000250257 0.00641644 -4.45474 
36 1 3.35133 15.4178 1.76025 0.00317911 -4.44439 
37 1 1.20794 14.155 1.76025 0.00169636 -4.45199 
38 1 -0.495217 14.5786 -0.000250283 0.000728466 -4.45037 
39 1 -0.0812575 16.3033 1.76025 0.0183871 -4.4563 
40 1 5.88417 18.5119 -0.000250305 0.604061 -4.30447 
41 1 5.47712 16.7103 1.76025 0.026074 -4.42659 
42 1 6.44818 20.7546 1.76025 8.17779 -4.28163 
43 1 3.79697 17.1306 -0.000250464 0.0308732 -4.44067 
44 1 2.48914 19.206 -0.000251413 2.86112 -4.33862 
45 1 4.2843 18.8696 1.76025 0.595473 -4.35328 
46 1 2.09065 17.5426 1.76025 0.0423814 -4.45217 
47 1 4.6334 20.7424 -0.000250143 3.52076 -4.40317 
48 1 2.86686 20.7429 1.76025 7.51984 -4.07419 
49 1 0.312864 17.9884 -0.000250109 0.507766 -4.3624 
50 1 0.736973 19.5876 1.76025 8.6325 -4.11651 
51 1 0.741623 21.9018 1.76025 8.57436 -4.1165 
52 1 2.0936 23.945 1.76025 0.0439625 -4.45167 
53 1 4.28658 22.6155 1.76025 0.568919 -4.35618 
54 1 3.35321 26.0691 1.76025 0.00343033 -4.44424 
55 1 5.47896 24.7754 1.76025 0.0262355 -4.42673 
56 1 7.57181 23.4981 1.76025 0.480667 -4.36465 
57 1 6.76297 26.9077 1.76025 0.000742108 -4.45045 
58 1 2.49229 22.281 -0.000250714 2.84716 -4.33912 
59 1 3.79969 24.3557 -0.000250177 0.0315545 -4.44033 
60 1 1.63829 25.6233 -0.000249827 0.00658997 -4.45477 
61 1 5.8864 22.9726 -0.000250125 0.563813 -4.31022 
62 1 7.17746 25.1827 -0.000249716 0.0192039 -4.45627 
63 1 5.05872 26.4936 -0.000249464 0.00297318 -4.44412 
64 1 1.2088 27.3313 1.76025 0.00178618 -4.45208 
65 1 2.49049 29.4742 1.76025 0.000246229 -4.45088 
66 1 4.62979 28.1996 1.76025 0.000518015 -4.44893 
67 1 3.77137 31.6128 1.76025 3.21962e-05 -4.45036 
68 1 5.90809 30.3334 1.76025 9.14662e-05 -4.44942 
69 1 7.18716 32.4693 1.76025 1.44007e-05 -4.44975 
70 1 2.91785 27.7674 -0.000249469 0.000457815 -4.44998 
71 1 0.784251 29.047 -0.000249136 0.000118665 -4.44993 
72 1 2.0642 31.1852 -0.000248911 2.21924e-05 -4.45018 
73 1 6.33704 28.6239 -0.000249048 0.000373559 -4.44878 
74 1 4.19945 29.9045 -0.00024908 4.53226e-05 -4.45033 
75 1 5.4793 32.0415 -0.000249418 6.44995e-06 -4.45001 
76 1 7.61492 30.7595 -0.000249076 4.14486e-05 -4.4495 
77 1 1.63715 32.896 1.76025 3.93538e-06 -4.44985 
78 1 0.782041 36.3154 1.76025 5.58048e-07 -4.44996 
79 1 2.9169 35.0329 1.76025 2.74747e-07 -4.44994 
80 1 5.05164 33.7505 1.76025 3.66951e-06 -4.4501 
81 1 4.19676 37.1699 1.76025 1.64918e-07 -4.44997 
82 1 6.3317 35.8877 1.76025 3.59731e-07 -4.45002 
83 1 7.61161 38.0248 1.76025 2.33441e-07 -4.45 
84 1 1.20959 34.6059 -0.000249077 2.3682e-06 -4.44988 
85 1 3.34411 33.3229 -0.000248941 4.77209e-06 -4.45007 
86 1 4.62423 35.4601 -0.000249013 1.33693e-06 -4.45003 
87 1 2.48952 36.7427 -0.000248782 6.90673e-07 -4.44993 
88 1 6.75926 34.1784 -0.000249368 1.14217e-06 -4.44996 
89 1 5.90412 37.5974 -0.00024877 1.57103e-07 -4.45001 
90 1 2.06185 38.4523 1.76025 2.23013e-07 -4.44996 
91 1 1.20628 41.8717 1.76025 4.34652e-08 -4.44999 
92 1 3.34136 40.5894 1.76025 8.0507e-08 -4.44997 
93 1 5.47651 39.3071 1.76025 1.1128e-07 -4.44999 
94 1 4.62091 42.7266 1.76025 7.0465e-08 -4.44998 
95 1 6.75607 41.4443 1.76025 5.66511e-08 -4.44999 
96 1 3.76917 38.8797 -0.000248561 1.29826e-07 -4.44996 
97 1 1.63407 40.162 -0.000248977 6.6448e-08 -4.44998 
98 1 2.91368 42.2991 -0.000248994 2.61405e-07 -4.44997 
99 1 7.18393 39.7345 -0.000248717 1.84342e-07 -4.45 
100 1 5.04877 41.0167 -0.000248772 2.28613e-07 -4.44998 
101 1 6.32827 43.154 -0.000249255 7.6027e-08 -4.44999 
102 1 2.48582 44.0089 1.76025 2.48825e-08 -4.44997 
103 1 1.63021 47.4285 1.76025 9.83984e-08 -4.45002 
104 1 3.76539 46.1461 1.76025 1.93994e-07 -4.44997 
105 1 5.90058 44.8638 1.76025 3.8657e-07 -4.44998 
106 1 5.04482 48.2834 1.76025 2.85279e-07 -4.44994 
107 1 7.17994 47.0011 1.76025 3.06475e-07 -4.45 
108 1 0.778557 43.5814 -0.000249164 1.74489e-07 -4.44998 
109 1 2.05798 45.7187 -0.000248853 1.03911e-07 -4.44999 
110 1 4.19313 44.4364 -0.000249028 1.03725e-07 -4.44997 
111 1 5.47257 46.5735 -0.000248947 3.60595e-07 -4.44997 
112 1 3.33756 47.856 -0.000248946 1.20769e-07 -4.44999 
113 1 7.60789 45.2912 -0.000249087 1.49895e-07 -4.44999 
114 1 6.75218 48.7107 -0.000249121 3.20018e-07 -4.44995 
115 1 0.774583 50.8477 1.76025 1.59975e-06 -4.44996 
116 1 2.90987 49.5659 1.76025 1.09406e-06 -4.45004 
117 1 2.05434 52.9846 1.76025 5.83388e-06 -4.44999 
118 1 4.18975 51.7034 1.76025 6.59011e-06 -4.45009 
119 1 6.32437 50.4203 1.76025 2.05123e-06 -4.44987 
120 1 5.46973 53.8411 1.76025 2.65894e-05 -4.45017 
121 1 7.60377 52.557 1.76025 1.46879e-05 -4.44975 
122 1 1.20244 49.1383 -0.00024916 3.24591e-07 -4.45001 
123 1 4.61719 49.9932 -0.000249385 5.26983e-07 -4.44995 
124 1 2.48226 51.2756 -0.000249201 2.82475e-06 -4.45012 
125 1 3.76246 53.4133 -0.000249272 2.78341e-05 -4.45034 
126 1 5.89668 52.1303 -0.0002491 3.59357e-06 -4.44986 
127 1 7.17621 54.267 -0.000249146 3.6497e-05 -4.4495 
128 1 1.19761 56.4027 1.76025 0.000345175 -4.44877 
129 1 3.33465 55.1216 1.76025 4.21622e-05 -4.45031 
130 1 2.47656 58.5331 1.76025 0.00296417 -4.4441 
131 1 4.61685 57.2587 1.76025 0.000434264 -4.44996 
132 1 6.75031 55.9795 1.76025 0.00012804 -4.44994 
133 1 5.89711 59.403 1.76025 0.00660196 -4.45475 
134 1 1.62595 54.6928 -0.000249098 9.82663e-05 -4.44939 
135 1 2.90477 56.8268 -0.000249687 0.000549278 -4.44889 
136 1 0.77222 58.1192 -0.000249881 0.000780169 -4.45049 
137 1 5.04376 55.5521 -0.00024967 0.000239289 -4.45087 
138 1 6.32622 57.695 -0.000249833 0.00176703 -4.45209 
139 1 4.18206 58.9573 -0.000250279 0.00360689 -4.44417 
140 1 7.61552 59.8442 -0.000249947 0.0195852 -4.45617 
141 1 1.6503 62.0555 1.76025 0.536335 -4.3145 
142 1 3.73604 60.6712 1.76025 0.031875 -4.44012 
143 1 2.90521 64.2863 1.76025 3.52861 -4.40287 
144 1 5.04383 62.7457 1.76025 2.83666 -4.33943 
145 1 7.22175 61.5284 1.76025 0.46103 -4.36633 
146 1 6.79343 63.1232 -0.000250302 8.53002 -4.11667 
147 1 2.05718 60.2519 -0.000250189 0.0263657 -4.4269 
148 1 1.09041 64.2555 -0.00024983 8.20079 -4.28091 
149 1 5.44203 61.0811 -0.000250736 0.0448594 -4.45141 
150 1 3.25015 62.4126 -0.000250448 0.549085 -4.35852 
151 1 4.67206 64.2849 -0.000252146 7.52113 -4.0746 
152 1 3.25701 66.1595 -0.000250483 0.617515 -4.3508 
153 1 5.05255 65.8212 1.76025 2.87209 -4.33834 
154 1 5.45169 67.4846 -0.00025046 0.0410847 -4.45255 
155 1 4.19097 69.6103 -0.000249739 0.00299509 -4.4445 
156 1 5.90547 69.1649 1.76025 0.00626593 -4.45474 
157 1 3.74522 67.8977 1.76025 0.0302714 -4.44091 
158 1 -0.0286893 67.0394 -0.000250357 0.529744 -4.36093 
159 1 1.65717 66.5178 1.76025 0.637607 -4.29993 
160 1 -0.451239 65.4376 1.76025 8.68051 -4.11688 
161 1 2.06451 68.3187 -0.000249946 0.0259596 -4.42649 
162 1 0.780003 70.4501 -0.000249611 0.000703107 -4.45031 
163 1 2.48483 70.0356 1.76025 0.00284505 -4.44422 
164 1 0.365772 68.7254 1.76025 0.0177104 -4.45635 
165 1 6.33414 70.8735 -0.0002496 0.00163525 -4.45193 
166 1 5.05155 73.0161 -0.000249232 0.000230075 -4.45083 
167 1 4.62509 71.3091 1.76025 0.000443641 -4.45001 
168 1 5.47702 74.727 1.76025 1.86375e-05 -4.45015 
169 1 2.91309 71.7412 -0.000249481 0.000453386 -4.44904 
170 1 1.63374 73.8751 -0.00024893 8.11439e-05 -4.44946 
171 1 3.34251 73.4462 1.76025 4.37599e-05 -4.45034 
172 1 1.2055 72.1658 1.76025 0.000354248 -4.44882 
173 1 3.76969 75.1545 -0.000249142 3.13637e-05 -4.45033 
174 1 2.06156 75.5831 1.76025 5.08763e-06 -4.45001 
175 1 -0.499185 72.5891 -0.000249168 0.000103679 -4.44988 
176 1 -0.073488 74.3013 1.76025 4.14921e-05 -4.44952 
177 1 0.353484 76.0109 -0.000249264 1.32188e-05 -4.44977 
178 1 5.90325 76.4377 -0.000249011 5.23127e-06 -4.44984 
179 1 6.33011 78.1473 1.76025 2.17194e-06 -4.44987 
180 1 2.48847 77.292 -0.000249179 3.8547e-06 -4.4501 
181 1 4.19609 76.8645 1.76025 3.87794e-06 -4.45005 
182 1 4.62263 78.5744 -0.000248822 4.67451e-07 -4.44993 
183 1 3.34202 80.7113 -0.000248554 4.60634e-07 -4.44998 
184 1 5.04948 80.284 1.76025 7.39846e-07 -4.44996 
185 1 2.91512 79.0015 1.76025 1.50553e-06 -4.45002 
186 1 0.780591 77.7198 1.76025 8.49504e-07 -4.44997 
187 1 1.20758 79.4291 -0.000248967 7.66262e-07 -4.45002 
188 1 -0.0729618 81.5662 -0.000248654 2.0855e-07 -4.45001 
189 1 1.63464 81.1387 1.76025 2.27847e-07 -4.45001 
190 1 -0.500088 79.8567 1.76025 6.02898e-07 -4.44998 
191 1 5.47666 81.9937 -0.000248512 2.08543e-07 -4.44997 
192 1 4.19647 84.1306 -0.000248679 1.55276e-07 -4.44998 
193 1 5.90402 83.7033 1.76025 2.67533e-07 -4.44999 
194 1 3.76923 82.421 1.76025 8.7835e-08 -4.44996 
195 1 6.33116 85.413 -0.000249016 3.74893e-08 -4.44999 
196 1 4.62359 85.8404 1.76025 1.91477e-07 -4.44998 
197 1 2.06176 82.8484 -0.000248493 7.83569e-08 -4.44998 
198 1 0.781583 84.9855 -0.000248679 2.9214e-07 -4.44999 
199 1 2.48898 84.558 1.76025 3.68826e-07 -4.44998 
200 1 0.354204 83.2758 1.76025 2.51465e-07 -4.44999 
201 1 2.91618 86.2679 -0.000248858 1.11065e-07 -4.44998 
202 1 1.20873 86.6953 1.76025 8.55258e-08 -4.44998 
203 1 12.7353 2.17889 -0.000248947 2.01289e-08 -4.44999 
204 1 12.308 0.469129 1.76025 3.0299e-08 -4.44997 
205 1 13.1625 3.88867 1.76025 3.18402e-07 -4.45 
206 1 10.6005 0.896574 -0.000248985 1.265e-07 -4.44997 
207 1 9.32044 3.03366 -0.000249231 1.89331e-07 -4.44996 
208 1 11.0278 2.60625 1.76025 1.69233e-07 -4.44997 
209 1 8.89294 1.32399 1.76025 7.20383e-07 -4.44998 
210 1 11.4551 4.31607 -0.000249156 1.22902e-07 -4.44997 
211 1 9.74781 4.74339 1.76025 4.70604e-07 -4.44995 
212 1 6.75833 0.0416483 1.76025 2.49607e-07 -4.44998 
213 1 7.18559 1.75148 -0.000249359 1.24493e-07 -4.44999 
214 1 7.6129 3.46117 1.76025 8.66495e-08 -4.44998 
215 1 8.0403 5.17074 -0.00024958 6.08486e-07 -4.44997 
216 1 13.5899 5.59835 -0.000249648 4.65759e-07 -4.45003 
217 1 10.1751 6.45334 -0.00024986 3.86254e-07 -4.44996 
218 1 11.8824 6.026 1.76025 1.58972e-06 -4.45004 
219 1 12.3098 7.73571 -0.000249987 3.45425e-06 -4.45011 
220 1 11.0293 9.87341 -0.000250206 2.71816e-05 -4.45034 
221 1 12.7375 9.44474 1.76025 4.82207e-06 -4.45001 
222 1 10.6024 8.16347 1.76025 5.60104e-06 -4.45007 
223 1 6.76039 7.30779 -0.000250092 1.58805e-06 -4.44998 
224 1 8.4679 6.88043 1.76025 2.0885e-06 -4.4499 
225 1 8.89534 8.5904 -0.000249992 3.94459e-06 -4.44986 
226 1 7.61549 10.727 -0.000250021 3.52426e-05 -4.44951 
227 1 9.32207 10.3012 1.76025 2.55518e-05 -4.45016 
228 1 7.18816 9.01705 1.76025 1.57787e-05 -4.44977 
229 1 13.1656 11.153 -0.000250054 8.54826e-05 -4.44944 
230 1 11.8863 13.287 -0.000250198 0.000488437 -4.44899 
231 1 13.5938 12.8627 1.76025 0.000343656 -4.44878 
232 1 11.4569 11.5818 1.76025 4.15671e-05 -4.45034 
233 1 12.3145 14.9928 1.76025 0.00287918 -4.44416 
234 1 9.74775 12.0122 -0.000250392 0.00023123 -4.45085 
235 1 8.46511 14.155 -0.000250347 0.00169608 -4.45199 
236 1 10.1742 13.719 1.76025 0.000443138 -4.45001 
237 1 8.04124 12.4394 1.76025 0.000115623 -4.44988 
238 1 10.6085 15.4178 -0.000250386 0.00317892 -4.44439 
239 1 8.89375 15.8633 1.76025 0.00641642 -4.45474 
240 1 6.76195 14.5786 1.76025 0.000728509 -4.45037 
241 1 7.17591 16.3033 -0.000250276 0.0183867 -4.4563 
242 1 12.7343 16.7103 -0.000250375 0.0260732 -4.42659 
243 1 13.7054 20.7546 -0.000249809 8.17785 -4.28163 
244 1 13.1413 18.5119 1.76025 0.604071 -4.30447 
245 1 9.34781 17.5426 -0.000250733 0.0423813 -4.45217 
246 1 11.0541 17.1306 1.76025 0.0308717 -4.44067 
247 1 11.5415 18.8696 -0.000250435 0.59547 -4.35328 
248 1 10.124 20.7429 -0.000251353 7.51985 -4.0742 
249 1 11.8906 20.7424 1.76025 3.5208 -4.40317 
250 1 9.7463 19.206 1.76025 2.86112 -4.33862 
251 1 7.57003 17.9884 1.76025 0.507758 -4.36241 
252 1 7.99414 19.5876 -0.000250407 8.63248 -4.11651 
253 1 7.99879 21.9018 -0.000250167 8.57436 -4.1165 
254 1 9.74946 22.281 1.76025 2.84716 -4.33912 
255 1 8.89546 25.6233 1.76025 0.00658934 -4.45477 
256 1 11.0569 24.3557 1.76025 0.0315555 -4.44034 
257 1 13.1436 22.9726 1.76025 0.563811 -4.31022 
258 1 12.3159 26.4936 1.76025 0.00297331 -4.44412 
259 1 14.4346 25.1827 1.76025 0.0192047 -4.45627 
260 1 11.5437 22.6155 -0.000250234 0.568914 -4.35618 
261 1 9.35076 23.945 -0.000250298 0.04396 -4.45167 
262 1 10.6104 26.0691 -0.000249678 0.00343058 -4.44425 
263 1 14.829 23.4981 -0.000249973 0.480665 -4.36465 
264 1 12.7361 24.7754 -0.000249721 0.0262357 -4.42673 
265 1 14.0201 26.9077 -0.000249463 0.000742127 -4.45045 
266 1 8.04142 29.047 1.76025 0.000118674 -4.44992 
267 1 10.175 27.7674 1.76025 0.000457688 -4.44998 
268 1 9.32136 31.1852 1.76025 2.22286e-05 -4.45018 
269 1 11.4566 29.9045 1.76025 4.53048e-05 -4.45033 
270 1 13.5942 28.6239 1.76025 0.000373524 -4.44878 
271 1 12.7365 32.0415 1.76025 6.46275e-06 -4.45001 
272 1 14.8721 30.7595 1.76025 4.15022e-05 -4.4495 
273 1 8.46597 27.3313 -0.000249453 0.00178637 -4.45208 
274 1 9.74765 29.4742 -0.000249111 0.000246344 -4.45088 
275 1 11.887 28.1996 -0.000249237 0.000518306 -4.44893 
276 1 13.1653 30.3334 -0.000248805 9.1469e-05 -4.44942 
277 1 11.0285 31.6128 -0.000249048 3.21944e-05 -4.45036 
278 1 14.4443 32.4693 -0.000249296 1.43855e-05 -4.44975 
279 1 8.46676 34.6059 1.76025 2.36259e-06 -4.44988 
280 1 10.6013 33.3229 1.76025 4.76617e-06 -4.45007 
281 1 9.74668 36.7427 1.76025 6.94421e-07 -4.44994 
282 1 11.8814 35.4601 1.76025 1.33984e-06 -4.45003 
283 1 14.0164 34.1784 1.76025 1.14178e-06 -4.44996 
284 1 13.1613 37.5974 1.76025 1.60795e-07 -4.45001 
285 1 8.89431 32.896 -0.000249205 3.91386e-06 -4.44985 
286 1 8.03921 36.3154 -0.000249007 5.57683e-07 -4.44996 
287 1 12.3088 33.7505 -0.000249402 3.67895e-06 -4.4501 
288 1 10.1741 35.0329 -0.000249007 2.74189e-07 -4.44994 
289 1 11.4539 37.1699 -0.000248654 1.64044e-07 -4.44997 
290 1 13.5889 35.8877 -0.000248979 3.6203e-07 -4.45002 
291 1 14.8688 38.0248 -0.000248697 2.33417e-07 -4.45 
292 1 8.89124 40.162 1.76025 6.5193e-08 -4.44998 
293 1 11.0263 38.8797 1.76025 1.31809e-07 -4.44996 
294 1 10.1708 42.2991 1.76025 2.63972e-07 -4.44997 
295 1 12.3059 41.0167 1.76025 2.26204e-07 -4.44998 
296 1 14.4411 39.7345 1.76025 1.86106e-07 -4.45 
297 1 13.5854 43.154 1.76025 7.87841e-08 -4.44999 
298 1 9.31901 38.4523 -0.000248822 2.1994e-07 -4.44996 
299 1 10.5985 40.5894 -0.000248844 7.89825e-08 -4.44997 
300 1 8.46344 41.8717 -0.000249158 4.41709e-08 -4.44999 
301 1 12.7337 39.3071 -0.000248658 1.10469e-07 -4.44999 
302 1 14.0132 41.4443 -0.000248885 5.68976e-08 -4.44999 
303 1 11.8781 42.7266 -0.000248988 7.05961e-08 -4.44998 
304 1 8.03572 43.5814 1.76025 1.72563e-07 -4.44998 
305 1 9.31515 45.7187 1.76025 1.05659e-07 -4.44999 
306 1 11.4503 44.4364 1.76025 1.04009e-07 -4.44997 
307 1 10.5947 47.856 1.76025 1.21914e-07 -4.44999 
308 1 12.7297 46.5735 1.76025 3.7049e-07 -4.44997 
309 1 14.8651 45.2912 1.76025 1.52406e-07 -4.44999 
310 1 14.0093 48.7107 1.76025 3.20713e-07 -4.44995 
311 1 9.74298 44.0089 -0.000249154 2.53627e-08 -4.44997 
312 1 8.88738 47.4285 -0.000249026 9.82657e-08 -4.45002 
313 1 13.1577 44.8638 -0.000248977 3.80212e-07 -4.44998 
314 1 11.0226 46.1461 -0.000248831 1.9782e-07 -4.44997 
315 1 12.302 48.2834 -0.000248988 2.85267e-07 -4.44994 
316 1 14.4371 47.0011 -0.000248896 3.03409e-07 -4.45 
317 1 8.45961 49.1383 1.76025 3.22103e-07 -4.45001 
318 1 9.73943 51.2756 1.76025 2.82305e-06 -4.45012 
319 1 11.8744 49.9932 1.76025 5.27129e-07 -4.44995 
320 1 11.0196 53.4133 1.76025 2.78272e-05 -4.45034 
321 1 13.1538 52.1303 1.76025 3.60907e-06 -4.44986 
322 1 14.4334 54.267 1.76025 3.65245e-05 -4.4495 
323 1 8.03175 50.8477 -0.000249251 1.60599e-06 -4.44996 
324 1 10.167 49.5659 -0.00024932 1.09378e-06 -4.45004 
325 1 11.4469 51.7034 -0.000249351 6.58463e-06 -4.45009 
326 1 9.3115 52.9847 -0.000249117 5.82651e-06 -4.44999 
327 1 13.5815 50.4203 -0.000248828 2.05514e-06 -4.44988 
328 1 14.8609 52.557 -0.00024878 1.46745e-05 -4.44975 
329 1 12.7269 53.8411 -0.000249224 2.65806e-05 -4.45017 
330 1 8.88312 54.6928 1.76025 9.81999e-05 -4.44939 
331 1 8.02939 58.1192 1.76025 0.000780075 -4.45049 
332 1 10.1619 56.8268 1.76025 0.000549204 -4.44889 
333 1 12.3009 55.5521 1.76025 0.00023924 -4.45087 
334 1 11.4392 58.9573 1.76025 0.00360709 -4.44417 
335 1 13.5834 57.695 1.76025 0.00176724 -4.45209 
336 1 14.8727 59.8442 1.76025 0.0195858 -4.45617 
337 1 10.5918 55.1216 -0.000249406 4.21694e-05 -4.45031 
338 1 8.45477 56.4027 -0.000249371 0.000345154 -4.44877 
339 1 9.73372 58.5331 -0.000250062 0.00296394 -4.4441 
340 1 14.0075 55.9795 -0.000249212 0.000128068 -4.44994 
341 1 11.874 57.2587 -0.000249872 0.000434351 -4.44996 
342 1 13.1543 59.403 -0.00025021 0.0066022 -4.45475 
343 1 9.31434 60.2519 1.76025 0.0263655 -4.4269 
344 1 8.34758 64.2555 1.76025 8.2007 -4.28091 
345 1 10.5073 62.4126 1.76025 0.549085 -4.35852 
346 1 12.6992 61.0811 1.76025 0.0448608 -4.45141 
347 1 11.9292 64.2849 1.76025 7.52112 -4.0746 
348 1 14.0506 63.1232 1.76025 8.53005 -4.11668 
349 1 8.90747 62.0555 -0.000250172 0.536327 -4.3145 
350 1 10.9932 60.6712 -0.000250253 0.0318755 -4.44012 
351 1 12.301 62.7457 -0.000251693 2.83666 -4.33943 
352 1 10.1624 64.2863 -0.000250374 3.52857 -4.40287 
353 1 14.4789 61.5284 -0.000249882 0.461036 -4.36633 
354 1 12.3097 65.8213 -0.000251635 2.87211 -4.33834 
355 1 11.0024 67.8977 -0.000250261 0.0302719 -4.44091 
356 1 12.7089 67.4846 1.76025 0.0410858 -4.45255 
357 1 10.5142 66.1595 1.76025 0.617523 -4.3508 
358 1 13.1626 69.1649 -0.000250005 0.00626637 -4.45474 
359 1 11.4481 69.6103 1.76025 0.00299516 -4.4445 
360 1 6.80593 65.4376 -0.000250537 8.6805 -4.11688 
361 1 8.91434 66.5178 -0.000250319 0.637603 -4.29993 
362 1 7.62294 68.7254 -0.000249838 0.0177101 -4.45635 
363 1 9.32167 68.3187 1.76025 0.0259598 -4.42649 
364 1 7.22848 67.0394 1.76025 0.529742 -4.36093 
365 1 9.742 70.0356 -0.000249582 0.00284502 -4.44422 
366 1 8.03717 70.4501 1.76025 0.000703112 -4.45031 
367 1 11.8823 71.3091 -0.000249493 0.000443742 -4.45001 
368 1 13.5913 70.8735 1.76025 0.00163533 -4.45193 
369 1 12.7342 74.727 -0.000248918 1.86064e-05 -4.45015 
370 1 12.3087 73.0161 1.76025 0.000230004 -4.45083 
371 1 8.46267 72.1658 -0.000249196 0.000354186 -4.44882 
372 1 10.1703 71.7412 1.76025 0.000453311 -4.44904 
373 1 10.5997 73.4462 -0.00024919 4.37725e-05 -4.45034 
374 1 9.31873 75.5831 -0.00024908 5.08515e-06 -4.45001 
375 1 11.0269 75.1545 1.76025 3.13585e-05 -4.45033 
376 1 8.8909 73.8751 1.76025 8.11467e-05 -4.44946 
377 1 6.75798 72.5891 1.76025 0.000103661 -4.44988 
378 1 7.18368 74.3013 -0.000249055 4.14913e-05 -4.44952 
379 1 7.61065 76.0109 1.76025 1.32284e-05 -4.44977 
380 1 13.5873 78.1473 -0.000249007 2.17205e-06 -4.44987 
381 1 13.1604 76.4377 1.76025 5.23975e-06 -4.44984 
382 1 11.4533 76.8645 -0.000248834 3.87216e-06 -4.45005 
383 1 10.1723 79.0015 -0.000249174 1.50731e-06 -4.45002 
384 1 11.8798 78.5744 1.76025 4.66104e-07 -4.44993 
385 1 9.74564 77.292 1.76025 3.84292e-06 -4.4501 
386 1 12.3066 80.284 -0.000248668 7.44823e-07 -4.44996 
387 1 10.5992 80.7113 1.76025 4.57703e-07 -4.44998 
388 1 8.03776 77.7198 -0.000249246 8.50826e-07 -4.44997 
389 1 6.75708 79.8567 -0.000248838 6.07769e-07 -4.44998 
390 1 8.46474 79.4291 1.76025 7.65161e-07 -4.45002 
391 1 8.8918 81.1387 -0.000248683 2.24627e-07 -4.45002 
392 1 7.1842 81.5662 1.76025 2.08097e-07 -4.45001 
393 1 11.0264 82.421 -0.00024864 8.52821e-08 -4.44996 
394 1 12.7338 81.9937 1.76025 2.09831e-07 -4.44997 
395 1 13.1612 83.7033 -0.000248517 2.63904e-07 -4.44999 
396 1 11.8808 85.8404 -0.000248785 1.93707e-07 -4.44998 
397 1 13.5883 85.413 1.76025 3.82733e-08 -4.44999 
398 1 11.4536 84.1306 1.76025 1.53595e-07 -4.44998 
399 1 7.61137 83.2758 -0.000248523 2.50696e-07 -4.44999 
400 1 9.31892 82.8484 1.76025 7.80281e-08 -4.44998 
401 1 9.74614 84.558 -0.000248589 3.69749e-07 -4.44998 
402 1 8.46589 86.6953 -0.00024904 8.24933e-08 -4.44998 
403 1 10.1733 86.2679 1.76025 1.11189e-07 -4.44998 
404 1 8.03875 84.9855 1.76025 2.85446e-07 -4.44999 
