ITEM: TIMESTEP
0
ITEM: NUMBER OF ATOMS
1616
ITEM: BOX BOUNDS pp pp pp
4.8760581309305459e-03 2.9010035429955607e+01
3.4254324559386956e-02 8.7044736488485611e+01
4.2546008738116433e-04 7.0367236197378569e+00
ITEM: ATOMS id type x y z c_csym c_PE 
1 1 5.05268 0.50399 0.0011753 2.74408e-08 -4.44999 
2 1 5.90653 3.92077 0.00117502 1.49545e-07 -4.45002 
3 1 5.47959 2.21237 1.76025 2.30611e-08 -4.44999 
4 1 1.64052 1.35816 0.00117528 1.68026e-08 -4.45 
5 1 3.3466 0.931061 1.76025 1.99492e-08 -4.44999 
6 1 3.77353 2.63942 0.00117513 3.92187e-08 -4.44998 
7 1 2.4945 4.77478 0.001175 3.14542e-07 -4.44996 
8 1 4.20049 4.34783 1.76025 6.64605e-08 -4.44999 
9 1 2.06743 3.06648 1.76025 1.09704e-07 -4.44999 
13 1 0.788426 5.20186 1.76025 1.96994e-07 -4.44998 
12 1 0.361325 3.49362 0.00117527 1.14518e-07 -4.45001 
212 1 6.75877 0.0769347 1.76025 1.19823e-08 -4.44999 
213 1 7.18565 1.78527 0.00117517 5.72367e-08 -4.45 
809 1 5.05268 0.50399 3.51932 2.74408e-08 -4.44999 
810 1 5.90653 3.92077 3.51932 1.49545e-07 -4.45002 
811 1 5.47959 2.21237 5.2784 2.30611e-08 -4.44999 
812 1 1.64052 1.35816 3.51932 1.68026e-08 -4.45 
813 1 3.3466 0.931061 5.2784 1.99492e-08 -4.44999 
814 1 3.77353 2.63942 3.51932 3.92187e-08 -4.44998 
815 1 2.4945 4.77478 3.51932 3.14542e-07 -4.44996 
816 1 4.20049 4.34783 5.2784 6.64605e-08 -4.44999 
817 1 2.06743 3.06648 5.2784 1.09704e-07 -4.44999 
821 1 0.788426 5.20186 5.2784 1.96994e-07 -4.44998 
820 1 0.361325 3.49362 3.51932 1.14518e-07 -4.45001 
1020 1 6.75877 0.0769347 5.2784 1.19823e-08 -4.44999 
1021 1 7.18565 1.78527 3.51932 5.72367e-08 -4.45 
14 1 6.33356 5.6291 1.76025 3.64007e-07 -4.45004 
15 1 4.62747 6.05633 0.00117503 8.53044e-07 -4.45005 
16 1 3.34832 8.19204 0.00117499 4.5032e-06 -4.4501 
17 1 5.05442 7.76472 1.76025 3.36563e-06 -4.45013 
18 1 2.92152 6.48326 1.76025 3.71292e-07 -4.44997 
19 1 5.48158 9.47243 0.00117483 5.27685e-06 -4.45002 
20 1 3.77492 9.90076 1.76025 3.00616e-05 -4.45037 
21 1 1.21558 6.91005 0.00117504 2.16017e-06 -4.4499 
26 1 0.363817 10.7535 1.76025 3.86914e-05 -4.44951 
23 1 1.6426 8.61862 1.76025 3.88102e-06 -4.44988 
25 1 2.06895 10.3281 0.00117485 2.23981e-05 -4.45019 
223 1 6.76073 7.33718 0.00117495 9.61846e-07 -4.44998 
228 1 7.18807 9.04502 1.76025 1.43025e-05 -4.44976 
822 1 6.33356 5.6291 5.2784 3.64007e-07 -4.45004 
823 1 4.62747 6.05633 3.51932 8.53044e-07 -4.45005 
824 1 3.34832 8.19204 3.51932 4.5032e-06 -4.4501 
825 1 5.05442 7.76472 5.2784 3.36563e-06 -4.45013 
826 1 2.92152 6.48326 5.2784 3.71292e-07 -4.44997 
827 1 5.48158 9.47243 3.51932 5.27685e-06 -4.45002 
828 1 3.77492 9.90076 5.2784 3.00616e-05 -4.45037 
829 1 1.21558 6.91005 3.51932 2.16017e-06 -4.4499 
834 1 0.363817 10.7535 5.2784 3.86914e-05 -4.44951 
831 1 1.6426 8.61862 5.2784 3.88102e-06 -4.44988 
833 1 2.06895 10.3281 3.51932 2.23981e-05 -4.45019 
1031 1 6.76073 7.33718 3.51932 9.61846e-07 -4.44998 
1036 1 7.18807 9.04502 5.2784 1.43025e-05 -4.44976 
27 1 4.20206 11.6077 0.00117484 4.29451e-05 -4.45034 
28 1 5.90947 11.1792 1.76025 8.99181e-05 -4.44943 
29 1 6.33732 12.8874 0.00117466 0.000348789 -4.44879 
30 1 5.05907 15.0159 0.00117476 0.00287412 -4.44408 
31 1 4.63128 13.3114 1.76025 0.000494735 -4.44896 
32 1 0.789315 12.4646 0.00117478 0.000112663 -4.44991 
33 1 2.49439 12.0377 1.76025 0.000238326 -4.45087 
34 1 2.92065 13.7432 0.00117477 0.00043123 -4.44999 
35 1 1.64121 15.8855 0.00117464 0.00633583 -4.45488 
36 1 3.35455 15.4404 1.76025 0.00321352 -4.4443 
37 1 1.21284 14.1787 1.76025 0.00168967 -4.45204 
240 1 6.76234 14.6019 1.76025 0.000725748 -4.45039 
241 1 7.17602 16.3253 0.00117457 0.0183715 -4.45647 
835 1 4.20206 11.6077 3.51932 4.29451e-05 -4.45034 
836 1 5.90947 11.1792 5.2784 8.99181e-05 -4.44943 
837 1 6.33732 12.8874 3.51932 0.000348789 -4.44879 
838 1 5.05907 15.0159 3.51932 0.00287412 -4.44408 
839 1 4.63128 13.3114 5.2784 0.000494735 -4.44896 
840 1 0.789315 12.4646 3.51932 0.000112663 -4.44991 
841 1 2.49439 12.0377 5.2784 0.000238326 -4.45087 
842 1 2.92065 13.7432 3.51932 0.00043123 -4.44999 
843 1 1.64121 15.8855 3.51932 0.00633583 -4.45488 
844 1 3.35455 15.4404 5.2784 0.00321352 -4.4443 
845 1 1.21284 14.1787 5.2784 0.00168967 -4.45204 
1048 1 6.76234 14.6019 5.2784 0.000725748 -4.45039 
1049 1 7.17602 16.3253 3.51932 0.0183715 -4.45647 
40 1 5.88542 18.5327 0.00117464 0.601637 -4.30483 
41 1 5.47863 16.732 1.76025 0.0262471 -4.42648 
42 1 6.4491 20.7729 1.76025 8.16479 -4.28767 
43 1 3.7999 17.1522 0.00117467 0.0308922 -4.44067 
44 1 2.49292 19.2262 0.0011742 2.85392 -4.33833 
45 1 4.28718 18.8901 1.76025 0.594959 -4.35345 
46 1 2.09495 17.5638 1.76025 0.0426334 -4.45216 
47 1 4.63607 20.7609 0.00117454 3.52003 -4.4057 
48 1 2.87046 20.7614 1.76025 7.51051 -4.07046 
49 1 0.318306 18.0095 0.00117455 0.506325 -4.3624 
50 1 0.742042 19.6071 1.76025 8.62027 -4.11528 
848 1 5.88542 18.5327 3.51932 0.601637 -4.30483 
849 1 5.47863 16.732 5.2784 0.0262471 -4.42648 
850 1 6.4491 20.7729 5.2784 8.16479 -4.28767 
851 1 3.7999 17.1522 3.51932 0.0308922 -4.44067 
852 1 2.49292 19.2262 3.51932 2.85392 -4.33833 
853 1 4.28718 18.8901 5.2784 0.594959 -4.35345 
854 1 2.09495 17.5638 5.2784 0.0426334 -4.45216 
855 1 4.63607 20.7609 3.51932 3.52003 -4.4057 
856 1 2.87046 20.7614 5.2784 7.51051 -4.07046 
857 1 0.318306 18.0095 3.51932 0.506325 -4.3624 
858 1 0.742042 19.6071 5.2784 8.62027 -4.11528 
51 1 0.746533 21.9191 1.76025 8.56195 -4.11524 
52 1 2.09774 23.9606 1.76025 0.0441145 -4.45165 
53 1 4.28929 22.6321 1.76025 0.568743 -4.35627 
54 1 3.3563 26.0832 1.76025 0.00343071 -4.44416 
55 1 5.48033 24.7906 1.76025 0.0264132 -4.42662 
63 1 5.06047 26.5074 0.00117497 0.00296931 -4.44403 
57 1 6.76337 26.9211 1.76025 0.000754056 -4.45045 
58 1 2.49579 22.2978 0.00117409 2.84156 -4.33882 
59 1 3.80245 24.3711 0.00117492 0.0315912 -4.44035 
60 1 1.64288 25.6379 0.00117496 0.00649167 -4.4549 
61 1 5.88752 22.9887 0.0011748 0.562289 -4.31053 
62 1 7.17752 25.1975 0.00117488 0.0191726 -4.45644 
859 1 0.746533 21.9191 5.2784 8.56195 -4.11524 
860 1 2.09774 23.9606 5.2784 0.0441145 -4.45165 
861 1 4.28929 22.6321 5.2784 0.568743 -4.35627 
862 1 3.3563 26.0832 5.2784 0.00343071 -4.44416 
863 1 5.48033 24.7906 5.2784 0.0264132 -4.42662 
871 1 5.06047 26.5074 3.51932 0.00296931 -4.44403 
865 1 6.76337 26.9211 5.2784 0.000754056 -4.45045 
866 1 2.49579 22.2978 3.51932 2.84156 -4.33882 
867 1 3.80245 24.3711 3.51932 0.0315912 -4.44035 
868 1 1.64288 25.6379 3.51932 0.00649167 -4.4549 
869 1 5.88752 22.9887 3.51932 0.562289 -4.31053 
870 1 7.17752 25.1975 3.51932 0.0191726 -4.45644 
667 1 0.32008 23.5139 0.00117483 0.479618 -4.36463 
1475 1 0.32008 23.5139 3.51932 0.479618 -4.36463 
64 1 1.21367 27.3445 1.76025 0.00177076 -4.45212 
65 1 2.49438 29.4856 1.76025 0.000251151 -4.4509 
66 1 4.63192 28.212 1.76025 0.00052724 -4.4489 
67 1 3.77422 31.6225 1.76025 3.24287e-05 -4.45037 
68 1 5.90921 30.3442 1.76025 9.4322e-05 -4.44942 
69 1 7.18727 32.4783 1.76025 1.51711e-05 -4.44976 
70 1 2.92141 27.7803 0.00117514 0.000441328 -4.44998 
71 1 0.789472 29.0587 0.00117515 0.000118464 -4.44995 
72 1 2.06844 31.1952 0.00117517 2.26479e-05 -4.4502 
73 1 6.33775 28.6359 0.00117504 0.000357349 -4.44877 
74 1 4.20194 29.9156 0.00117514 4.49412e-05 -4.45034 
75 1 5.48086 32.0508 0.00117534 5.59391e-06 -4.45001 
872 1 1.21367 27.3445 5.2784 0.00177076 -4.45212 
873 1 2.49438 29.4856 5.2784 0.000251151 -4.4509 
874 1 4.63192 28.212 5.2784 0.00052724 -4.4489 
875 1 3.77422 31.6225 5.2784 3.24287e-05 -4.45037 
876 1 5.90921 30.3442 5.2784 9.4322e-05 -4.44942 
877 1 7.18727 32.4783 5.2784 1.51711e-05 -4.44976 
878 1 2.92141 27.7803 3.51932 0.000441328 -4.44998 
879 1 0.789472 29.0587 3.51932 0.000118464 -4.44995 
880 1 2.06844 31.1952 3.51932 2.26479e-05 -4.4502 
881 1 6.33775 28.6359 3.51932 0.000357349 -4.44877 
882 1 4.20194 29.9156 3.51932 4.49412e-05 -4.45034 
883 1 5.48086 32.0508 3.51932 5.59391e-06 -4.45001 
676 1 0.363452 30.7698 1.76025 4.0042e-05 -4.44952 
1484 1 0.363452 30.7698 5.2784 4.0042e-05 -4.44952 
77 1 1.64176 32.9046 1.76025 4.13616e-06 -4.44987 
78 1 0.787215 36.3211 1.76025 1.988e-07 -4.44997 
79 1 2.92044 35.0398 1.76025 4.74302e-07 -4.44995 
80 1 5.05338 33.7585 1.76025 4.10041e-06 -4.45012 
81 1 4.19924 37.1751 1.76025 1.4001e-07 -4.44999 
82 1 6.33238 35.8939 1.76025 4.44622e-07 -4.45003 
89 1 5.9052 37.6022 0.00117529 1.94531e-07 -4.45001 
84 1 1.21455 34.6131 0.00117535 2.23499e-06 -4.44989 
85 1 3.34739 33.3311 0.00117522 4.7099e-06 -4.45009 
86 1 4.62635 35.4667 0.00117532 8.27099e-07 -4.45004 
87 1 2.49325 36.7482 0.00117533 2.73047e-07 -4.44995 
88 1 6.7597 34.186 0.00117535 1.00575e-06 -4.44998 
885 1 1.64176 32.9046 5.2784 4.13616e-06 -4.44987 
886 1 0.787215 36.3211 5.2784 1.988e-07 -4.44997 
887 1 2.92044 35.0398 5.2784 4.74302e-07 -4.44995 
888 1 5.05338 33.7585 5.2784 4.10041e-06 -4.45012 
889 1 4.19924 37.1751 5.2784 1.4001e-07 -4.44999 
890 1 6.33238 35.8939 5.2784 4.44622e-07 -4.45003 
897 1 5.9052 37.6022 3.51932 1.94531e-07 -4.45001 
892 1 1.21455 34.6131 3.51932 2.23499e-06 -4.44989 
893 1 3.34739 33.3311 3.51932 4.7099e-06 -4.45009 
894 1 4.62635 35.4667 3.51932 8.27099e-07 -4.45004 
895 1 2.49325 36.7482 3.51932 2.73047e-07 -4.44995 
896 1 6.7597 34.186 3.51932 1.00575e-06 -4.44998 
695 1 0.359919 38.0293 0.00117534 6.92834e-08 -4.45001 
1503 1 0.359919 38.0293 3.51932 6.92834e-08 -4.45001 
90 1 2.06596 38.4564 1.76025 8.79182e-08 -4.44999 
91 1 1.21118 41.8731 1.76025 2.4243e-08 -4.45 
92 1 3.3446 40.5918 1.76025 6.76758e-08 -4.44999 
93 1 5.47793 39.3105 1.76025 7.63609e-08 -4.45 
94 1 4.62312 42.7272 1.76025 2.96005e-08 -4.44999 
95 1 6.75649 41.446 1.76025 2.28797e-08 -4.45 
96 1 3.77195 38.8835 0.00117527 5.70289e-08 -4.44999 
97 1 1.63857 40.1647 0.00117544 1.58708e-08 -4.45 
98 1 2.91713 42.3002 0.00117535 1.01098e-08 -4.44999 
99 1 7.18387 39.7376 0.00117527 3.8015e-08 -4.45 
100 1 5.05054 41.0189 0.00117527 1.80658e-08 -4.44999 
101 1 6.32906 43.1543 0.00117536 1.71511e-08 -4.44999 
898 1 2.06596 38.4564 5.2784 8.79182e-08 -4.44999 
899 1 1.21118 41.8731 5.2784 2.4243e-08 -4.45 
900 1 3.3446 40.5918 5.2784 6.76758e-08 -4.44999 
901 1 5.47793 39.3105 5.2784 7.63609e-08 -4.45 
902 1 4.62312 42.7272 5.2784 2.96005e-08 -4.44999 
903 1 6.75649 41.446 5.2784 2.28797e-08 -4.45 
904 1 3.77195 38.8835 3.51932 5.70289e-08 -4.44999 
905 1 1.63857 40.1647 3.51932 1.58708e-08 -4.45 
906 1 2.91713 42.3002 3.51932 1.01098e-08 -4.44999 
907 1 7.18387 39.7376 3.51932 3.8015e-08 -4.45 
908 1 5.05054 41.0189 3.51932 1.80658e-08 -4.44999 
909 1 6.32906 43.1543 3.51932 1.71511e-08 -4.44999 
102 1 2.48968 44.0085 1.76025 6.57356e-09 -4.45 
103 1 1.6348 47.4254 1.76025 1.62447e-07 -4.45002 
104 1 3.76814 46.144 1.76025 4.58209e-08 -4.44998 
105 1 5.90156 44.8627 1.76025 4.48605e-08 -4.45 
106 1 5.04662 48.2794 1.76025 3.57827e-07 -4.44996 
107 1 7.18012 46.9982 1.76025 4.52939e-08 -4.45001 
108 1 0.783714 43.5814 0.00117544 4.65708e-09 -4.45 
109 1 2.06222 45.717 0.00117525 2.37751e-08 -4.45 
110 1 4.19565 44.4356 0.00117529 1.88283e-08 -4.44999 
111 1 5.47413 46.5711 0.00117518 5.71566e-08 -4.44998 
112 1 3.34073 47.8525 0.00117522 9.39725e-08 -4.44999 
114 1 6.75262 48.7065 0.00117518 2.72759e-07 -4.44998 
910 1 2.48968 44.0085 5.2784 6.57356e-09 -4.45 
911 1 1.6348 47.4254 5.2784 1.62447e-07 -4.45002 
912 1 3.76814 46.144 5.2784 4.58209e-08 -4.44998 
913 1 5.90156 44.8627 5.2784 4.48605e-08 -4.45 
914 1 5.04662 48.2794 5.2784 3.57827e-07 -4.44996 
915 1 7.18012 46.9982 5.2784 4.52939e-08 -4.45001 
916 1 0.783714 43.5814 3.51932 4.65708e-09 -4.45 
917 1 2.06222 45.717 3.51932 2.37751e-08 -4.45 
918 1 4.19565 44.4356 3.51932 1.88283e-08 -4.44999 
919 1 5.47413 46.5711 3.51932 5.71566e-08 -4.44998 
920 1 3.34073 47.8525 3.51932 9.39725e-08 -4.44999 
922 1 6.75262 48.7065 3.51932 2.72759e-07 -4.44998 
713 1 0.35626 45.2899 1.76025 2.33896e-08 -4.45001 
1521 1 0.35626 45.2899 5.2784 2.33896e-08 -4.45001 
115 1 0.779945 50.8418 1.76025 1.08127e-06 -4.44998 
116 1 2.91342 49.561 1.76025 8.65153e-07 -4.45004 
117 1 2.05875 52.977 1.76025 5.58819e-06 -4.45 
118 1 4.1922 51.6967 1.76025 4.68132e-06 -4.4501 
119 1 6.32512 50.4147 1.76025 2.21096e-06 -4.4499 
120 1 5.47129 53.8328 1.76025 2.48069e-05 -4.45021 
127 1 7.17637 54.2583 0.001175 3.89472e-05 -4.44951 
122 1 1.20741 49.1337 0.0011754 3.07581e-07 -4.45004 
123 1 4.61926 49.988 0.00117531 4.6408e-07 -4.44996 
124 1 2.48617 51.2694 0.00117532 3.38236e-06 -4.45012 
125 1 3.7654 53.4054 0.00117519 3.06126e-05 -4.45037 
126 1 5.89785 52.1233 0.00117507 4.06619e-06 -4.44987 
923 1 0.779945 50.8418 5.2784 1.08127e-06 -4.44998 
924 1 2.91342 49.561 5.2784 8.65153e-07 -4.45004 
925 1 2.05875 52.977 5.2784 5.58819e-06 -4.45 
926 1 4.1922 51.6967 5.2784 4.68132e-06 -4.4501 
927 1 6.32512 50.4147 5.2784 2.21096e-06 -4.4499 
928 1 5.47129 53.8328 5.2784 2.48069e-05 -4.45021 
935 1 7.17637 54.2583 3.51932 3.89472e-05 -4.44951 
930 1 1.20741 49.1337 3.51932 3.07581e-07 -4.45004 
931 1 4.61926 49.988 3.51932 4.6408e-07 -4.44996 
932 1 2.48617 51.2694 3.51932 3.38236e-06 -4.45012 
933 1 3.7654 53.4054 3.51932 3.06126e-05 -4.45037 
934 1 5.89785 52.1233 3.51932 4.06619e-06 -4.44987 
732 1 0.352332 52.5497 0.00117515 1.51413e-05 -4.44975 
1540 1 0.352332 52.5497 3.51932 1.51413e-05 -4.44975 
128 1 1.20252 56.3923 1.76025 0.000357519 -4.44877 
129 1 3.33792 55.1123 1.76025 4.29301e-05 -4.45032 
130 1 2.48042 58.521 1.76025 0.00298399 -4.44401 
131 1 4.61901 57.2478 1.76025 0.000436408 -4.44995 
132 1 6.75071 55.9695 1.76025 0.000127166 -4.44997 
133 1 5.89819 59.3902 1.76025 0.00655381 -4.45486 
134 1 1.6306 54.6839 0.00117507 9.72184e-05 -4.4494 
135 1 2.9084 56.8161 0.00117498 0.00054794 -4.44885 
136 1 0.777538 58.1074 0.00117494 0.000763176 -4.45052 
137 1 5.04562 55.5425 0.00117511 0.000247601 -4.45091 
138 1 6.327 57.6838 0.00117489 0.00180894 -4.45216 
139 1 4.1845 58.9448 0.00117489 0.00362748 -4.44407 
936 1 1.20252 56.3923 5.2784 0.000357519 -4.44877 
937 1 3.33792 55.1123 5.2784 4.29301e-05 -4.45032 
938 1 2.48042 58.521 5.2784 0.00298399 -4.44401 
939 1 4.61901 57.2478 5.2784 0.000436408 -4.44995 
940 1 6.75071 55.9695 5.2784 0.000127166 -4.44997 
941 1 5.89819 59.3902 5.2784 0.00655381 -4.45486 
942 1 1.6306 54.6839 3.51932 9.72184e-05 -4.4494 
943 1 2.9084 56.8161 3.51932 0.00054794 -4.44885 
944 1 0.777538 58.1074 3.51932 0.000763176 -4.45052 
945 1 5.04562 55.5425 3.51932 0.000247601 -4.45091 
946 1 6.327 57.6838 3.51932 0.00180894 -4.45216 
947 1 4.1845 58.9448 3.51932 0.00362748 -4.44407 
740 1 0.363917 59.8312 1.76025 0.0196739 -4.45634 
1548 1 0.363917 59.8312 5.2784 0.0196739 -4.45634 
141 1 1.65466 62.0411 1.76025 0.534977 -4.31483 
142 1 3.73876 60.6575 1.76025 0.0319672 -4.44012 
143 1 2.90818 64.2694 1.76025 3.52707 -4.40541 
144 1 5.04575 62.7304 1.76025 2.83063 -4.33913 
145 1 7.22187 61.5143 1.76025 0.460208 -4.36625 
146 1 6.79397 63.1076 0.00117444 8.51726 -4.11528 
147 1 2.06133 60.2385 0.00117478 0.0264949 -4.42678 
148 1 1.09524 64.239 0.00117483 8.18441 -4.28697 
149 1 5.44341 61.067 0.00117441 0.0450374 -4.45138 
150 1 3.25301 62.3976 0.0011745 0.548982 -4.35864 
151 1 4.67405 64.268 0.00117339 7.5121 -4.07085 
949 1 1.65466 62.0411 5.2784 0.534977 -4.31483 
950 1 3.73876 60.6575 5.2784 0.0319672 -4.44012 
951 1 2.90818 64.2694 5.2784 3.52707 -4.40541 
952 1 5.04575 62.7304 5.2784 2.83063 -4.33913 
953 1 7.22187 61.5143 5.2784 0.460208 -4.36625 
954 1 6.79397 63.1076 3.51932 8.51726 -4.11528 
955 1 2.06133 60.2385 3.51932 0.0264949 -4.42678 
956 1 1.09524 64.239 3.51932 8.18441 -4.28697 
957 1 5.44341 61.067 3.51932 0.0450374 -4.45138 
958 1 3.25301 62.3976 3.51932 0.548982 -4.35864 
959 1 4.67405 64.268 3.51932 7.5121 -4.07085 
152 1 3.25979 66.1406 0.00117458 0.616508 -4.351 
153 1 5.05456 65.8026 1.76025 2.86607 -4.33808 
154 1 5.45305 67.465 0.00117445 0.0413038 -4.45255 
155 1 4.19335 69.5891 0.0011749 0.00302394 -4.44443 
156 1 5.9065 69.1441 1.76025 0.00621879 -4.45487 
157 1 3.74798 67.8777 1.76025 0.0303124 -4.44092 
164 1 0.371291 68.7049 1.76025 0.0177025 -4.4565 
159 1 1.66155 66.4986 1.76025 0.634725 -4.3004 
163 1 2.48865 70.0141 1.76025 0.00283991 -4.44414 
161 1 2.06865 68.2983 0.00117481 0.026041 -4.4264 
162 1 0.785224 70.4283 0.00117497 0.000701091 -4.45033 
360 1 6.80648 65.4196 0.00117461 8.6666 -4.11568 
364 1 7.22853 67.02 1.76025 0.527752 -4.36096 
960 1 3.25979 66.1406 3.51932 0.616508 -4.351 
961 1 5.05456 65.8026 5.2784 2.86607 -4.33808 
962 1 5.45305 67.465 3.51932 0.0413038 -4.45255 
963 1 4.19335 69.5891 3.51932 0.00302394 -4.44443 
964 1 5.9065 69.1441 5.2784 0.00621879 -4.45487 
965 1 3.74798 67.8777 5.2784 0.0303124 -4.44092 
972 1 0.371291 68.7049 5.2784 0.0177025 -4.4565 
967 1 1.66155 66.4986 5.2784 0.634725 -4.3004 
971 1 2.48865 70.0141 5.2784 0.00283991 -4.44414 
969 1 2.06865 68.2983 3.51932 0.026041 -4.4264 
970 1 0.785224 70.4283 3.51932 0.000701091 -4.45033 
1168 1 6.80648 65.4196 3.51932 8.6666 -4.11568 
1172 1 7.22853 67.02 5.2784 0.527752 -4.36096 
165 1 6.33481 70.8514 0.00117506 0.00163095 -4.45199 
166 1 5.05329 72.9922 0.00117513 0.000232201 -4.45086 
167 1 4.62716 71.2867 1.76025 0.000438765 -4.45001 
168 1 5.47845 74.7018 1.76025 1.9617e-05 -4.45017 
169 1 2.91656 71.7183 0.00117512 0.000458947 -4.44901 
170 1 1.63816 73.8506 0.00117507 8.40889e-05 -4.44945 
171 1 3.34563 73.422 1.76025 4.27774e-05 -4.45035 
172 1 1.2104 72.1426 1.76025 0.000345947 -4.4488 
173 1 3.77247 75.129 0.00117522 3.02695e-05 -4.45035 
174 1 2.06569 75.5572 1.76025 5.13303e-06 -4.45002 
177 1 0.359073 75.9846 0.00117537 1.37677e-05 -4.44976 
377 1 6.75834 72.5655 1.76025 0.000104996 -4.44989 
378 1 7.18368 74.2763 0.00117514 3.92268e-05 -4.44951 
973 1 6.33481 70.8514 3.51932 0.00163095 -4.45199 
974 1 5.05329 72.9922 3.51932 0.000232201 -4.45086 
975 1 4.62716 71.2867 5.2784 0.000438765 -4.45001 
976 1 5.47845 74.7018 5.2784 1.9617e-05 -4.45017 
977 1 2.91656 71.7183 3.51932 0.000458947 -4.44901 
978 1 1.63816 73.8506 3.51932 8.40889e-05 -4.44945 
979 1 3.34563 73.422 5.2784 4.27774e-05 -4.45035 
980 1 1.2104 72.1426 5.2784 0.000345947 -4.4488 
981 1 3.77247 75.129 3.51932 3.02695e-05 -4.45035 
982 1 2.06569 75.5572 5.2784 5.13303e-06 -4.45002 
985 1 0.359073 75.9846 3.51932 1.37677e-05 -4.44976 
1185 1 6.75834 72.5655 5.2784 0.000104996 -4.44989 
1186 1 7.18368 74.2763 3.51932 3.92268e-05 -4.44951 
178 1 5.90438 76.411 0.00117523 3.94701e-06 -4.44986 
179 1 6.33087 78.1193 1.76025 2.30345e-06 -4.4499 
180 1 2.49235 77.2647 0.00117537 3.75437e-06 -4.45011 
181 1 4.19854 76.8375 1.76025 3.95861e-06 -4.45008 
182 1 4.6248 78.5461 0.00117531 6.17842e-07 -4.44995 
183 1 3.34531 80.6813 0.00117538 1.61156e-07 -4.44998 
184 1 5.05141 80.2544 1.76025 3.42131e-07 -4.44995 
185 1 2.91875 78.973 1.76025 8.35656e-07 -4.45003 
186 1 0.785911 77.6922 1.76025 8.19744e-07 -4.44998 
187 1 1.21257 79.4001 0.00117544 4.16586e-07 -4.45003 
189 1 1.6392 81.1083 1.76025 2.9906e-07 -4.45001 
389 1 6.7576 79.8273 0.00117538 2.18379e-07 -4.44998 
392 1 7.18433 81.5354 1.76025 1.21823e-07 -4.45001 
986 1 5.90438 76.411 3.51932 3.94701e-06 -4.44986 
987 1 6.33087 78.1193 5.2784 2.30345e-06 -4.4499 
988 1 2.49235 77.2647 3.51932 3.75437e-06 -4.45011 
989 1 4.19854 76.8375 5.2784 3.95861e-06 -4.45008 
990 1 4.6248 78.5461 3.51932 6.17842e-07 -4.44995 
991 1 3.34531 80.6813 3.51932 1.61156e-07 -4.44998 
992 1 5.05141 80.2544 5.2784 3.42131e-07 -4.44995 
993 1 2.91875 78.973 5.2784 8.35656e-07 -4.45003 
994 1 0.785911 77.6922 5.2784 8.19744e-07 -4.44998 
995 1 1.21257 79.4001 3.51932 4.16586e-07 -4.45003 
997 1 1.6392 81.1083 5.2784 2.9906e-07 -4.45001 
1197 1 6.7576 79.8273 3.51932 2.18379e-07 -4.44998 
1200 1 7.18433 81.5354 5.2784 1.21823e-07 -4.45001 
191 1 5.4782 81.9625 0.00117537 6.5825e-08 -4.44999 
192 1 4.19891 84.0979 0.00117536 3.26191e-08 -4.44999 
193 1 5.90502 83.6708 1.76025 2.15342e-08 -4.45 
194 1 3.77206 82.3896 1.76025 7.07355e-08 -4.44999 
195 1 6.33191 85.3791 0.00117534 1.88671e-08 -4.44999 
196 1 4.62581 85.8062 1.76025 7.61738e-09 -4.44999 
197 1 2.06597 82.8166 0.00117538 3.92326e-08 -4.45 
198 1 0.786697 84.952 0.0011754 2.20104e-08 -4.45 
199 1 2.49282 84.525 1.76025 2.0419e-08 -4.44999 
200 1 0.359888 83.2437 1.76025 3.96804e-08 -4.45001 
201 1 2.91969 86.2332 0.00117529 1.14708e-08 -4.44999 
202 1 1.21357 86.6603 1.76025 3.08648e-08 -4.45 
999 1 5.4782 81.9625 3.51932 6.5825e-08 -4.44999 
1000 1 4.19891 84.0979 3.51932 3.26191e-08 -4.44999 
1001 1 5.90502 83.6708 5.2784 2.15342e-08 -4.45 
1002 1 3.77206 82.3896 5.2784 7.07355e-08 -4.44999 
1003 1 6.33191 85.3791 3.51932 1.88671e-08 -4.44999 
1004 1 4.62581 85.8062 5.2784 7.61738e-09 -4.44999 
1005 1 2.06597 82.8166 3.51932 3.92326e-08 -4.45 
1006 1 0.786697 84.952 3.51932 2.20104e-08 -4.45 
1007 1 2.49282 84.525 5.2784 2.0419e-08 -4.44999 
1008 1 0.359888 83.2437 5.2784 3.96804e-08 -4.45001 
1009 1 2.91969 86.2332 3.51932 1.14708e-08 -4.44999 
1010 1 1.21357 86.6603 5.2784 3.08648e-08 -4.45 
203 1 12.7309 2.21237 0.00117526 2.29656e-08 -4.44999 
204 1 12.304 0.50399 1.76025 2.72772e-08 -4.44999 
205 1 13.1578 3.92077 1.76025 1.48858e-07 -4.45002 
206 1 10.5979 0.93106 0.0011753 2.00358e-08 -4.44999 
207 1 9.31872 3.06648 0.0011751 1.0997e-07 -4.44999 
208 1 11.0248 2.63942 1.76025 3.93957e-08 -4.44998 
209 1 8.89181 1.35816 1.76025 1.74575e-08 -4.45 
210 1 11.4518 4.34783 0.00117501 6.64092e-08 -4.44999 
211 1 9.74579 4.77478 1.76025 3.15173e-07 -4.44996 
215 1 8.03972 5.20185 0.00117496 1.97963e-07 -4.44998 
214 1 7.61261 3.49362 1.76025 1.14379e-07 -4.45001 
1011 1 12.7309 2.21237 3.51932 2.29656e-08 -4.44999 
1012 1 12.304 0.50399 5.2784 2.72772e-08 -4.44999 
1013 1 13.1578 3.92077 5.2784 1.48858e-07 -4.45002 
1014 1 10.5979 0.93106 3.51932 2.00358e-08 -4.44999 
1015 1 9.31872 3.06648 3.51932 1.0997e-07 -4.44999 
1016 1 11.0248 2.63942 5.2784 3.93957e-08 -4.44998 
1017 1 8.89181 1.35816 5.2784 1.74575e-08 -4.45 
1018 1 11.4518 4.34783 3.51932 6.64092e-08 -4.44999 
1019 1 9.74579 4.77478 5.2784 3.15173e-07 -4.44996 
1023 1 8.03972 5.20185 3.51932 1.97963e-07 -4.44998 
1022 1 7.61261 3.49362 5.2784 1.14379e-07 -4.45001 
414 1 14.0101 0.0769349 0.0011755 1.18753e-08 -4.44999 
415 1 14.4369 1.78527 1.76025 5.70311e-08 -4.45 
1222 1 14.0101 0.0769349 3.51932 1.18753e-08 -4.44999 
1223 1 14.4369 1.78527 5.2784 5.70311e-08 -4.45 
216 1 13.5848 5.6291 0.00117518 3.64364e-07 -4.45004 
217 1 10.1728 6.48326 0.00117498 3.70838e-07 -4.44997 
218 1 11.8788 6.05633 1.76025 8.53444e-07 -4.45005 
219 1 12.3057 7.76472 0.00117502 3.36737e-06 -4.45013 
220 1 11.0262 9.90076 0.00117489 3.0058e-05 -4.45037 
221 1 12.7329 9.47243 1.76025 5.278e-06 -4.45002 
222 1 10.5996 8.19204 1.76025 4.50071e-06 -4.4501 
227 1 9.32024 10.3281 1.76025 2.23994e-05 -4.45019 
224 1 8.46687 6.91005 1.76025 2.16344e-06 -4.4499 
225 1 8.89389 8.61862 0.00117479 3.88017e-06 -4.44988 
226 1 7.61511 10.7535 0.00117467 3.86965e-05 -4.44951 
1024 1 13.5848 5.6291 3.51932 3.64364e-07 -4.45004 
1025 1 10.1728 6.48326 3.51932 3.70838e-07 -4.44997 
1026 1 11.8788 6.05633 5.2784 8.53444e-07 -4.45005 
1027 1 12.3057 7.76472 3.51932 3.36737e-06 -4.45013 
1028 1 11.0262 9.90076 3.51932 3.0058e-05 -4.45037 
1029 1 12.7329 9.47243 5.2784 5.278e-06 -4.45002 
1030 1 10.5996 8.19204 5.2784 4.50071e-06 -4.4501 
1035 1 9.32024 10.3281 5.2784 2.23994e-05 -4.45019 
1032 1 8.46687 6.91005 5.2784 2.16344e-06 -4.4499 
1033 1 8.89389 8.61862 3.51932 3.88017e-06 -4.44988 
1034 1 7.61511 10.7535 3.51932 3.86965e-05 -4.44951 
426 1 14.4394 9.04502 0.00117487 1.42999e-05 -4.44976 
428 1 14.012 7.33718 1.76025 9.62399e-07 -4.44998 
1234 1 14.4394 9.04502 3.51932 1.42999e-05 -4.44976 
1236 1 14.012 7.33718 5.2784 9.62399e-07 -4.44998 
229 1 13.1608 11.1792 0.0011748 8.99244e-05 -4.44943 
230 1 11.8826 13.3114 0.00117472 0.00049474 -4.44896 
231 1 13.5886 12.8874 1.76025 0.000348743 -4.44879 
232 1 11.4533 11.6077 1.76025 4.29446e-05 -4.45034 
233 1 12.3104 15.0159 1.76025 0.00287409 -4.44408 
234 1 9.74567 12.0377 0.00117482 0.000238321 -4.45087 
235 1 8.46413 14.1787 0.0011747 0.00168975 -4.45204 
236 1 10.1719 13.7432 1.76025 0.000431251 -4.44999 
237 1 8.04061 12.4646 1.76025 0.000112664 -4.44991 
238 1 10.6058 15.4404 0.00117467 0.00321347 -4.4443 
239 1 8.8925 15.8855 1.76025 0.00633558 -4.45488 
1037 1 13.1608 11.1792 3.51932 8.99244e-05 -4.44943 
1038 1 11.8826 13.3114 3.51932 0.00049474 -4.44896 
1039 1 13.5886 12.8874 5.2784 0.000348743 -4.44879 
1040 1 11.4533 11.6077 5.2784 4.29446e-05 -4.45034 
1041 1 12.3104 15.0159 5.2784 0.00287409 -4.44408 
1042 1 9.74567 12.0377 3.51932 0.000238321 -4.45087 
1043 1 8.46413 14.1787 3.51932 0.00168975 -4.45204 
1044 1 10.1719 13.7432 5.2784 0.000431251 -4.44999 
1045 1 8.04061 12.4646 5.2784 0.000112664 -4.44991 
1046 1 10.6058 15.4404 3.51932 0.00321347 -4.4443 
1047 1 8.8925 15.8855 5.2784 0.00633558 -4.45488 
442 1 14.0136 14.6019 0.00117479 0.000725733 -4.45039 
443 1 14.4273 16.3253 1.76025 0.0183719 -4.45647 
1250 1 14.0136 14.6019 3.51932 0.000725733 -4.45039 
1251 1 14.4273 16.3253 5.2784 0.0183719 -4.45647 
242 1 12.7299 16.732 0.00117476 0.0262471 -4.42648 
243 1 13.7004 20.7729 0.00117483 8.16481 -4.28767 
244 1 13.1367 18.5327 1.76025 0.601644 -4.30483 
245 1 9.34624 17.5638 0.00117445 0.0426326 -4.45216 
246 1 11.0512 17.1522 1.76025 0.030892 -4.44067 
247 1 11.5385 18.8901 0.00117461 0.59496 -4.35345 
248 1 10.1218 20.7614 0.00117383 7.51051 -4.07047 
249 1 11.8874 20.7609 1.76025 3.52005 -4.4057 
250 1 9.74421 19.2262 1.76025 2.85392 -4.33833 
251 1 7.5696 18.0095 1.76025 0.506318 -4.3624 
252 1 7.99333 19.6071 0.00117454 8.62027 -4.11528 
1050 1 12.7299 16.732 3.51932 0.0262471 -4.42648 
1051 1 13.7004 20.7729 3.51932 8.16481 -4.28767 
1052 1 13.1367 18.5327 5.2784 0.601644 -4.30483 
1053 1 9.34624 17.5638 3.51932 0.0426326 -4.45216 
1054 1 11.0512 17.1522 5.2784 0.030892 -4.44067 
1055 1 11.5385 18.8901 3.51932 0.59496 -4.35345 
1056 1 10.1218 20.7614 3.51932 7.51051 -4.07047 
1057 1 11.8874 20.7609 5.2784 3.52005 -4.4057 
1058 1 9.74421 19.2262 5.2784 2.85392 -4.33833 
1059 1 7.5696 18.0095 5.2784 0.506318 -4.3624 
1060 1 7.99333 19.6071 3.51932 8.62027 -4.11528 
253 1 7.99782 21.9191 0.00117464 8.56197 -4.11524 
254 1 9.74708 22.2978 1.76025 2.84156 -4.33882 
255 1 8.89417 25.6379 1.76025 0.0064913 -4.4549 
256 1 11.0537 24.3711 1.76025 0.0315914 -4.44035 
257 1 13.1388 22.9887 1.76025 0.562288 -4.31053 
258 1 12.3118 26.5074 1.76025 0.00296958 -4.44403 
259 1 14.4288 25.1975 1.76025 0.0191727 -4.45644 
260 1 11.5406 22.6321 0.00117473 0.568741 -4.35626 
261 1 9.34903 23.9606 0.00117473 0.0441148 -4.45165 
262 1 10.6076 26.0832 0.00117503 0.00343081 -4.44416 
265 1 14.0147 26.9211 0.00117505 0.000754064 -4.45045 
264 1 12.7316 24.7906 0.0011749 0.0264129 -4.42662 
56 1 7.57137 23.5139 1.76025 0.479619 -4.36463 
1061 1 7.99782 21.9191 3.51932 8.56197 -4.11524 
1062 1 9.74708 22.2978 5.2784 2.84156 -4.33882 
1063 1 8.89417 25.6379 5.2784 0.0064913 -4.4549 
1064 1 11.0537 24.3711 5.2784 0.0315914 -4.44035 
1065 1 13.1388 22.9887 5.2784 0.562288 -4.31053 
1066 1 12.3118 26.5074 5.2784 0.00296958 -4.44403 
1067 1 14.4288 25.1975 5.2784 0.0191727 -4.45644 
1068 1 11.5406 22.6321 3.51932 0.568741 -4.35626 
1069 1 9.34903 23.9606 3.51932 0.0441148 -4.45165 
1070 1 10.6076 26.0832 3.51932 0.00343081 -4.44416 
1073 1 14.0147 26.9211 3.51932 0.000754064 -4.45045 
1072 1 12.7316 24.7906 3.51932 0.0264129 -4.42662 
864 1 7.57137 23.5139 5.2784 0.479619 -4.36463 
266 1 8.04076 29.0587 1.76025 0.000118472 -4.44995 
267 1 10.1727 27.7803 1.76025 0.000441265 -4.44998 
268 1 9.31973 31.1952 1.76025 2.26541e-05 -4.4502 
269 1 11.4532 29.9156 1.76025 4.49467e-05 -4.45034 
270 1 13.589 28.6359 1.76025 0.000357492 -4.44877 
271 1 12.7322 32.0508 1.76025 5.59706e-06 -4.45001 
278 1 14.4386 32.4783 0.0011754 1.5184e-05 -4.44975 
273 1 8.46497 27.3445 0.00117511 0.00177074 -4.45212 
274 1 9.74567 29.4855 0.00117517 0.00025115 -4.4509 
275 1 11.8832 28.212 0.00117515 0.00052727 -4.4489 
276 1 13.1605 30.3442 0.00117511 9.43683e-05 -4.44942 
277 1 11.0255 31.6225 0.00117519 3.24542e-05 -4.45037 
76 1 7.61474 30.7698 0.00117512 4.00185e-05 -4.44952 
1074 1 8.04076 29.0587 5.2784 0.000118472 -4.44995 
1075 1 10.1727 27.7803 5.2784 0.000441265 -4.44998 
1076 1 9.31973 31.1952 5.2784 2.26541e-05 -4.4502 
1077 1 11.4532 29.9156 5.2784 4.49467e-05 -4.45034 
1078 1 13.589 28.6359 5.2784 0.000357492 -4.44877 
1079 1 12.7322 32.0508 5.2784 5.59706e-06 -4.45001 
1086 1 14.4386 32.4783 3.51932 1.5184e-05 -4.44975 
1081 1 8.46497 27.3445 3.51932 0.00177074 -4.45212 
1082 1 9.74567 29.4855 3.51932 0.00025115 -4.4509 
1083 1 11.8832 28.212 3.51932 0.00052727 -4.4489 
1084 1 13.1605 30.3442 3.51932 9.43683e-05 -4.44942 
1085 1 11.0255 31.6225 3.51932 3.24542e-05 -4.45037 
884 1 7.61474 30.7698 3.51932 4.00185e-05 -4.44952 
279 1 8.46584 34.6131 1.76025 2.23842e-06 -4.44989 
280 1 10.5987 33.3311 1.76025 4.71893e-06 -4.45009 
281 1 9.74454 36.7482 1.76025 2.74191e-07 -4.44995 
282 1 11.8776 35.4667 1.76025 8.28356e-07 -4.45004 
283 1 14.011 34.186 1.76025 1.00754e-06 -4.44998 
284 1 13.1565 37.6022 1.76025 1.9336e-07 -4.45001 
285 1 8.89305 32.9046 0.0011752 4.13636e-06 -4.44987 
286 1 8.03851 36.3211 0.0011753 1.99676e-07 -4.44997 
287 1 12.3047 33.7585 0.00117541 4.10766e-06 -4.45012 
288 1 10.1717 35.0398 0.00117522 4.74009e-07 -4.44995 
289 1 11.4505 37.1751 0.00117524 1.38968e-07 -4.44999 
290 1 13.5837 35.8939 0.00117535 4.45222e-07 -4.45003 
83 1 7.61121 38.0293 1.76025 6.95235e-08 -4.45001 
1087 1 8.46584 34.6131 5.2784 2.23842e-06 -4.44989 
1088 1 10.5987 33.3311 5.2784 4.71893e-06 -4.45009 
1089 1 9.74454 36.7482 5.2784 2.74191e-07 -4.44995 
1090 1 11.8776 35.4667 5.2784 8.28356e-07 -4.45004 
1091 1 14.011 34.186 5.2784 1.00754e-06 -4.44998 
1092 1 13.1565 37.6022 5.2784 1.9336e-07 -4.45001 
1093 1 8.89305 32.9046 3.51932 4.13636e-06 -4.44987 
1094 1 8.03851 36.3211 3.51932 1.99676e-07 -4.44997 
1095 1 12.3047 33.7585 3.51932 4.10766e-06 -4.45012 
1096 1 10.1717 35.0398 3.51932 4.74009e-07 -4.44995 
1097 1 11.4505 37.1751 3.51932 1.38968e-07 -4.44999 