ITEM: TIMESTEP
150
ITEM: NUMBER OF ATOMS
1616
ITEM: BOX BOUNDS pp pp pp
4.8760581309305459e-03 2.9010035429955607e+01
3.4254324559386956e-02 8.7044736488485611e+01
4.2546008738116433e-04 7.0367236197378569e+00
ITEM: ATOMS id type x y z c_csym c_PE 
1 1 5.05203 0.503843 0.00117485 7.58691e-09 -4.44999 
2 1 5.90641 3.92065 0.00117485 1.36113e-07 -4.45001 
3 1 5.47923 2.21223 1.76025 7.16808e-09 -4.44999 
4 1 1.63997 1.35804 0.00117485 5.83101e-09 -4.45 
5 1 3.34601 0.930927 1.76025 6.55553e-09 -4.44999 
6 1 3.77324 2.63928 0.00117485 4.16425e-08 -4.44998 
7 1 2.49447 4.77467 0.00117485 3.06885e-07 -4.44996 
8 1 4.20043 4.3477 1.76025 5.0034e-08 -4.44999 
9 1 2.06721 3.06635 1.76025 3.72778e-08 -4.44998 
13 1 0.788424 5.20175 1.76025 1.89631e-07 -4.44998 
12 1 0.361156 3.4935 0.00117485 4.75995e-08 -4.45001 
212 1 6.75804 0.076768 1.76025 5.31375e-10 -4.44999 
213 1 7.18524 1.78515 0.00117485 2.23751e-08 -4.45 
809 1 5.05203 0.503843 3.51932 7.58691e-09 -4.44999 
810 1 5.90641 3.92065 3.51932 1.36113e-07 -4.45001 
811 1 5.47923 2.21223 5.2784 7.16808e-09 -4.44999 
812 1 1.63997 1.35804 3.51932 5.83101e-09 -4.45 
813 1 3.34601 0.930927 5.2784 6.55553e-09 -4.44999 
814 1 3.77324 2.63928 3.51932 4.16425e-08 -4.44998 
815 1 2.49447 4.77467 3.51932 3.06885e-07 -4.44996 
816 1 4.20043 4.3477 5.2784 5.0034e-08 -4.44999 
817 1 2.06721 3.06635 5.2784 3.72778e-08 -4.44998 
821 1 0.788424 5.20175 5.2784 1.89631e-07 -4.44998 
820 1 0.361156 3.4935 3.51932 4.75995e-08 -4.45001 
1020 1 6.75804 0.076768 5.2784 5.31375e-10 -4.44999 
1021 1 7.18524 1.78515 3.51932 2.23751e-08 -4.45 
14 1 6.33359 5.629 1.76025 4.36872e-07 -4.45004 
15 1 4.62755 6.05622 0.00117485 8.08375e-07 -4.45004 
16 1 3.34863 8.19195 0.00117485 4.41028e-06 -4.45009 
17 1 5.05464 7.76463 1.76025 3.82999e-06 -4.45012 
18 1 2.92166 6.48315 1.76025 4.25955e-07 -4.44996 
19 1 5.48207 9.47236 0.00117485 5.28459e-06 -4.45001 
20 1 3.77545 9.90069 1.76025 3.09867e-05 -4.45037 
21 1 1.21577 6.90995 0.00117485 2.20526e-06 -4.4499 
26 1 0.364591 10.7535 1.76025 3.95832e-05 -4.44951 
23 1 1.64299 8.61852 1.76025 4.12971e-06 -4.44987 
25 1 2.06963 10.328 0.00117485 2.22254e-05 -4.45019 
223 1 6.76092 7.33709 0.00117485 9.37988e-07 -4.44998 
228 1 7.1885 9.04493 1.76025 1.46239e-05 -4.44976 
822 1 6.33359 5.629 5.2784 4.36872e-07 -4.45004 
823 1 4.62755 6.05622 3.51932 8.08375e-07 -4.45004 
824 1 3.34863 8.19195 3.51932 4.41028e-06 -4.45009 
825 1 5.05464 7.76463 5.2784 3.82999e-06 -4.45012 
826 1 2.92166 6.48315 5.2784 4.25955e-07 -4.44996 
827 1 5.48207 9.47236 3.51932 5.28459e-06 -4.45001 
828 1 3.77545 9.90069 5.2784 3.09867e-05 -4.45037 
829 1 1.21577 6.90995 3.51932 2.20526e-06 -4.4499 
834 1 0.364591 10.7535 5.2784 3.95832e-05 -4.44951 
831 1 1.64299 8.61852 5.2784 4.12971e-06 -4.44987 
833 1 2.06963 10.328 3.51932 2.22254e-05 -4.45019 
1031 1 6.76092 7.33709 3.51932 9.37988e-07 -4.44998 
1036 1 7.1885 9.04493 5.2784 1.46239e-05 -4.44976 
27 1 4.20304 11.6077 0.00117485 4.36215e-05 -4.45034 
28 1 5.91033 11.1792 1.76025 9.07787e-05 -4.44943 
29 1 6.3387 12.8875 0.00117485 0.000353988 -4.44879 
30 1 5.06116 15.0162 0.00117485 0.0029087 -4.44407 
31 1 4.63281 13.3115 1.76025 0.000507741 -4.44894 
32 1 0.790516 12.4647 0.00117485 0.000115705 -4.44993 
33 1 2.49546 12.0378 1.76025 0.000242864 -4.45089 
34 1 2.92227 13.7433 0.00117485 0.00043947 -4.45 
35 1 1.64354 15.8859 0.00117485 0.00648046 -4.4549 
36 1 3.35687 15.4406 1.76025 0.00331017 -4.44424 
37 1 1.21457 14.179 1.76025 0.00173004 -4.4521 
240 1 6.76422 14.6023 1.76025 0.000737357 -4.45043 
241 1 7.17832 16.3259 0.00117485 0.0187878 -4.45645 
835 1 4.20304 11.6077 3.51932 4.36215e-05 -4.45034 
836 1 5.91033 11.1792 5.2784 9.07787e-05 -4.44943 
837 1 6.3387 12.8875 3.51932 0.000353988 -4.44879 
838 1 5.06116 15.0162 3.51932 0.0029087 -4.44407 
839 1 4.63281 13.3115 5.2784 0.000507741 -4.44894 
840 1 0.790516 12.4647 3.51932 0.000115705 -4.44993 
841 1 2.49546 12.0378 5.2784 0.000242864 -4.45089 
842 1 2.92227 13.7433 3.51932 0.00043947 -4.45 
843 1 1.64354 15.8859 3.51932 0.00648046 -4.4549 
844 1 3.35687 15.4406 5.2784 0.00331017 -4.44424 
845 1 1.21457 14.179 5.2784 0.00173004 -4.4521 
1048 1 6.76422 14.6023 5.2784 0.000737357 -4.45043 
1049 1 7.17832 16.3259 3.51932 0.0187878 -4.45645 
40 1 5.88818 18.5338 0.00117485 0.581514 -4.30776 
41 1 5.48104 16.7327 1.76025 0.0262825 -4.42654 
42 1 6.45109 20.7617 1.76025 8.16367 -4.28783 
43 1 3.80279 17.1526 0.00117485 0.0312099 -4.44048 
44 1 2.49606 19.226 0.00117485 2.84714 -4.33856 
45 1 4.29001 18.8909 1.76025 0.581916 -4.35483 
46 1 2.09805 17.5635 1.76025 0.0434743 -4.45186 
47 1 4.63782 20.7617 0.00117485 3.51998 -4.4058 
48 1 2.87218 20.7617 1.76025 7.50951 -4.07019 
49 1 0.32084 18.0096 0.00117485 0.493009 -4.36355 
50 1 0.746189 19.6058 1.76025 8.5904 -4.1152 
848 1 5.88818 18.5338 3.51932 0.581514 -4.30776 
849 1 5.48104 16.7327 5.2784 0.0262825 -4.42654 
850 1 6.45109 20.7617 5.2784 8.16367 -4.28783 
851 1 3.80279 17.1526 3.51932 0.0312099 -4.44048 
852 1 2.49606 19.226 3.51932 2.84714 -4.33856 
853 1 4.29001 18.8909 5.2784 0.581916 -4.35483 
854 1 2.09805 17.5635 5.2784 0.0434743 -4.45186 
855 1 4.63782 20.7617 3.51932 3.51998 -4.4058 
856 1 2.87218 20.7617 5.2784 7.50951 -4.07019 
857 1 0.32084 18.0096 3.51932 0.493009 -4.36355 
858 1 0.746189 19.6058 5.2784 8.5904 -4.1152 
51 1 0.746188 21.9175 1.76025 8.59041 -4.1152 
52 1 2.09805 23.9598 1.76025 0.0434741 -4.45186 
53 1 4.29001 22.6325 1.76025 0.581919 -4.35483 
54 1 3.35687 26.0827 1.76025 0.00331014 -4.44424 
55 1 5.48104 24.7906 1.76025 0.0262825 -4.42654 
63 1 5.06116 26.5071 0.00117485 0.0029087 -4.44407 
57 1 6.76421 26.921 1.76025 0.000737354 -4.45043 
58 1 2.49606 22.2973 0.00117485 2.84714 -4.33856 
59 1 3.80279 24.3707 0.00117485 0.0312098 -4.44048 
60 1 1.64353 25.6375 0.00117485 0.00648044 -4.4549 
61 1 5.88818 22.9895 0.00117485 0.581518 -4.30776 
62 1 7.17832 25.1974 0.00117485 0.0187877 -4.45645 
859 1 0.746188 21.9175 5.2784 8.59041 -4.1152 
860 1 2.09805 23.9598 5.2784 0.0434741 -4.45186 
861 1 4.29001 22.6325 5.2784 0.581919 -4.35483 
862 1 3.35687 26.0827 5.2784 0.00331014 -4.44424 
863 1 5.48104 24.7906 5.2784 0.0262825 -4.42654 
871 1 5.06116 26.5071 3.51932 0.0029087 -4.44407 
865 1 6.76421 26.921 5.2784 0.000737354 -4.45043 
866 1 2.49606 22.2973 3.51932 2.84714 -4.33856 
867 1 3.80279 24.3707 3.51932 0.0312098 -4.44048 
868 1 1.64353 25.6375 3.51932 0.00648044 -4.4549 
869 1 5.88818 22.9895 3.51932 0.581518 -4.30776 
870 1 7.17832 25.1974 3.51932 0.0187877 -4.45645 
667 1 0.32084 23.5137 0.00117485 0.493012 -4.36355 
1475 1 0.32084 23.5137 3.51932 0.493012 -4.36355 
64 1 1.21457 27.3444 1.76025 0.00173003 -4.4521 
65 1 2.49546 29.4855 1.76025 0.000242864 -4.45089 
66 1 4.63281 28.2118 1.76025 0.000507736 -4.44894 
67 1 3.77545 31.6226 1.76025 3.09867e-05 -4.45037 
68 1 5.91033 30.3441 1.76025 9.07779e-05 -4.44943 
69 1 7.1885 32.4784 1.76025 1.46238e-05 -4.44976 
70 1 2.92227 27.78 0.00117485 0.000439469 -4.45 
71 1 0.790516 29.0586 0.00117485 0.000115704 -4.44993 
72 1 2.06962 31.1953 0.00117485 2.22251e-05 -4.45019 
73 1 6.3387 28.6358 0.00117485 0.000353988 -4.44879 
74 1 4.20304 29.9156 0.00117485 4.36215e-05 -4.45034 
75 1 5.48207 32.051 0.00117485 5.28458e-06 -4.45001 
872 1 1.21457 27.3444 5.2784 0.00173003 -4.4521 
873 1 2.49546 29.4855 5.2784 0.000242864 -4.45089 
874 1 4.63281 28.2118 5.2784 0.000507736 -4.44894 
875 1 3.77545 31.6226 5.2784 3.09867e-05 -4.45037 
876 1 5.91033 30.3441 5.2784 9.07779e-05 -4.44943 
877 1 7.1885 32.4784 5.2784 1.46238e-05 -4.44976 
878 1 2.92227 27.78 3.51932 0.000439469 -4.45 
879 1 0.790516 29.0586 3.51932 0.000115704 -4.44993 
880 1 2.06962 31.1953 3.51932 2.22251e-05 -4.45019 
881 1 6.3387 28.6358 3.51932 0.000353988 -4.44879 
882 1 4.20304 29.9156 3.51932 4.36215e-05 -4.45034 
883 1 5.48207 32.051 3.51932 5.28458e-06 -4.45001 
676 1 0.364591 30.7698 1.76025 3.95833e-05 -4.44951 
1484 1 0.364591 30.7698 5.2784 3.95833e-05 -4.44951 
77 1 1.64299 32.9048 1.76025 4.12975e-06 -4.44987 
78 1 0.788423 36.3216 1.76025 1.89617e-07 -4.44998 
79 1 2.92166 35.0402 1.76025 4.25964e-07 -4.44996 
80 1 5.05464 33.7587 1.76025 3.83003e-06 -4.45012 
81 1 4.20043 37.1756 1.76025 5.00361e-08 -4.44999 
82 1 6.33359 35.8943 1.76025 4.36886e-07 -4.45004 
89 1 5.90641 37.6027 0.00117485 1.36099e-07 -4.45001 
84 1 1.21577 34.6134 0.00117485 2.20525e-06 -4.4499 
85 1 3.34863 33.3314 0.00117485 4.4102e-06 -4.45009 
86 1 4.62754 35.4671 0.00117485 8.08343e-07 -4.45004 
87 1 2.49447 36.7486 0.00117485 3.0689e-07 -4.44996 
88 1 6.76092 34.1862 0.00117485 9.37969e-07 -4.44998 
885 1 1.64299 32.9048 5.2784 4.12975e-06 -4.44987 
886 1 0.788423 36.3216 5.2784 1.89617e-07 -4.44998 
887 1 2.92166 35.0402 5.2784 4.25964e-07 -4.44996 
888 1 5.05464 33.7587 5.2784 3.83003e-06 -4.45012 
889 1 4.20043 37.1756 5.2784 5.00361e-08 -4.44999 
890 1 6.33359 35.8943 5.2784 4.36886e-07 -4.45004 
897 1 5.90641 37.6027 3.51932 1.36099e-07 -4.45001 
892 1 1.21577 34.6134 3.51932 2.20525e-06 -4.4499 
893 1 3.34863 33.3314 3.51932 4.4102e-06 -4.45009 
894 1 4.62754 35.4671 3.51932 8.08343e-07 -4.45004 
895 1 2.49447 36.7486 3.51932 3.0689e-07 -4.44996 
896 1 6.76092 34.1862 3.51932 9.37969e-07 -4.44998 
695 1 0.361155 38.0298 0.00117485 4.76006e-08 -4.45001 
1503 1 0.361155 38.0298 3.51932 4.76006e-08 -4.45001 
90 1 2.06721 38.457 1.76025 3.72734e-08 -4.44998 
91 1 1.21276 41.8736 1.76025 5.62529e-09 -4.45 
92 1 3.34601 40.5924 1.76025 6.55323e-09 -4.44999 
93 1 5.47923 39.3111 1.76025 7.16757e-09 -4.44999 
94 1 4.62481 42.7278 1.76025 1.82777e-09 -4.44999 
95 1 6.75804 41.4465 1.76025 5.31149e-10 -4.44999 
96 1 3.77324 38.884 0.00117485 4.16414e-08 -4.44998 
97 1 1.63997 40.1653 0.00117485 5.83096e-09 -4.45 
98 1 2.91878 42.3007 0.00117485 1.82743e-09 -4.44999 
99 1 7.18523 39.7382 0.00117485 2.23723e-08 -4.45 
100 1 5.05203 41.0195 0.00117485 7.58628e-09 -4.44999 
101 1 6.33083 43.1549 0.00117485 5.62534e-09 -4.45 
898 1 2.06721 38.457 5.2784 3.72734e-08 -4.44998 
899 1 1.21276 41.8736 5.2784 5.62529e-09 -4.45 
900 1 3.34601 40.5924 5.2784 6.55322e-09 -4.44999 
901 1 5.47923 39.3111 5.2784 7.16757e-09 -4.44999 
902 1 4.62481 42.7278 5.2784 1.82777e-09 -4.44999 
903 1 6.75804 41.4465 5.2784 5.31149e-10 -4.44999 
904 1 3.77324 38.884 3.51932 4.16414e-08 -4.44998 
905 1 1.63997 40.1653 3.51932 5.83096e-09 -4.45 
906 1 2.91878 42.3007 3.51932 1.82743e-09 -4.44999 
907 1 7.18523 39.7382 3.51932 2.23723e-08 -4.45 
908 1 5.05203 41.0195 3.51932 7.58628e-09 -4.44999 
909 1 6.33083 43.1549 3.51932 5.62534e-09 -4.45 
102 1 2.49156 44.0091 1.76025 7.58719e-09 -4.44999 
103 1 1.63719 47.4259 1.76025 1.36112e-07 -4.45001 
104 1 3.77036 46.1445 1.76025 4.1644e-08 -4.44998 
105 1 5.90362 44.8633 1.76025 5.83179e-09 -4.45 
106 1 5.04912 48.2799 1.76025 3.06896e-07 -4.44996 
107 1 7.18244 46.9987 1.76025 4.76036e-08 -4.45001 
108 1 0.785555 43.582 0.00117485 5.31191e-10 -4.44999 
109 1 2.06436 45.7175 0.00117485 7.1685e-09 -4.44999 
110 1 4.19758 44.4362 0.00117485 6.55353e-09 -4.44999 
111 1 5.47638 46.5716 0.00117485 3.72761e-08 -4.44998 
112 1 3.34316 47.8529 0.00117485 5.00364e-08 -4.44999 
114 1 6.75517 48.707 0.00117485 1.89626e-07 -4.44998 
910 1 2.49156 44.0091 5.2784 7.58719e-09 -4.44999 
911 1 1.63719 47.4259 5.2784 1.36112e-07 -4.45001 
912 1 3.77036 46.1445 5.2784 4.1644e-08 -4.44998 
913 1 5.90362 44.8633 5.2784 5.83179e-09 -4.45 
914 1 5.04912 48.2799 5.2784 3.06896e-07 -4.44996 
915 1 7.18244 46.9987 5.2784 4.76036e-08 -4.45001 
916 1 0.785555 43.582 3.51932 5.31191e-10 -4.44999 
917 1 2.06436 45.7175 3.51932 7.1685e-09 -4.44999 
918 1 4.19758 44.4362 3.51932 6.55353e-09 -4.44999 
919 1 5.47638 46.5716 3.51932 3.72761e-08 -4.44998 
920 1 3.34316 47.8529 3.51932 5.00364e-08 -4.44999 
922 1 6.75517 48.707 3.51932 1.89626e-07 -4.44998 
713 1 0.358357 45.2904 1.76025 2.23728e-08 -4.45 
1521 1 0.358357 45.2904 5.2784 2.23728e-08 -4.45 
115 1 0.782668 50.8423 1.76025 9.37991e-07 -4.44998 
116 1 2.91605 49.5615 1.76025 8.08382e-07 -4.45004 
117 1 2.06152 52.9776 1.76025 5.2846e-06 -4.45001 
118 1 4.19497 51.6972 1.76025 4.41027e-06 -4.45009 
119 1 6.32782 50.4152 1.76025 2.20526e-06 -4.4499 
120 1 5.47397 53.8333 1.76025 2.22254e-05 -4.45019 
127 1 7.179 54.2587 0.00117485 3.95832e-05 -4.44951 
122 1 1.21 49.1342 0.00117485 4.36885e-07 -4.45004 
123 1 4.62193 49.9884 0.00117485 4.25958e-07 -4.44996 
124 1 2.48895 51.2699 0.00117485 3.83001e-06 -4.45012 
125 1 3.76814 53.4059 0.00117485 3.09867e-05 -4.45037 
126 1 5.9006 52.1238 0.00117485 4.1297e-06 -4.44987 
923 1 0.782668 50.8423 5.2784 9.37991e-07 -4.44998 
924 1 2.91605 49.5615 5.2784 8.08382e-07 -4.45004 
925 1 2.06152 52.9776 5.2784 5.2846e-06 -4.45001 
926 1 4.19497 51.6972 5.2784 4.41027e-06 -4.45009 
927 1 6.32782 50.4152 5.2784 2.20526e-06 -4.4499 
928 1 5.47397 53.8333 5.2784 2.22254e-05 -4.45019 
935 1 7.179 54.2587 3.51932 3.95832e-05 -4.44951 
930 1 1.21 49.1342 3.51932 4.36885e-07 -4.45004 
931 1 4.62193 49.9884 3.51932 4.25958e-07 -4.44996 
932 1 2.48895 51.2699 3.51932 3.83001e-06 -4.45012 
933 1 3.76814 53.4059 3.51932 3.09867e-05 -4.45037 
934 1 5.9006 52.1238 3.51932 4.1297e-06 -4.44987 
732 1 0.355087 52.5502 0.00117485 1.46239e-05 -4.44976 
1540 1 0.355087 52.5502 3.51932 1.46239e-05 -4.44976 
128 1 1.20489 56.3928 1.76025 0.000353988 -4.44879 
129 1 3.34055 55.113 1.76025 4.36215e-05 -4.45034 
130 1 2.48243 58.5214 1.76025 0.0029087 -4.44407 
131 1 4.62132 57.2485 1.76025 0.000439469 -4.45 
132 1 6.75308 55.9699 1.76025 0.000115705 -4.44993 
133 1 5.90006 59.3911 1.76025 0.00648046 -4.4549 
134 1 1.63326 54.6844 0.00117485 9.07786e-05 -4.44943 
135 1 2.91078 56.8168 0.00117485 0.000507741 -4.44894 
136 1 0.779376 58.1076 0.00117485 0.000737357 -4.45043 
137 1 5.04813 55.543 0.00117485 0.000242864 -4.45089 
138 1 6.32902 57.6842 0.00117485 0.00173004 -4.4521 
139 1 4.18672 58.9458 0.00117485 0.00331017 -4.44424 
936 1 1.20489 56.3928 5.2784 0.000353988 -4.44879 
937 1 3.34055 55.113 5.2784 4.36215e-05 -4.45034 
938 1 2.48243 58.5214 5.2784 0.0029087 -4.44407 
939 1 4.62132 57.2485 5.2784 0.000439469 -4.45 
940 1 6.75308 55.9699 5.2784 0.000115705 -4.44993 
941 1 5.90006 59.3911 5.2784 0.00648046 -4.4549 
942 1 1.63326 54.6844 3.51932 9.07786e-05 -4.44943 
943 1 2.91078 56.8168 3.51932 0.000507741 -4.44894 
944 1 0.779376 58.1076 3.51932 0.000737357 -4.45043 
945 1 5.04813 55.543 3.51932 0.000242864 -4.45089 
946 1 6.32902 57.6842 3.51932 0.00173004 -4.4521 
947 1 4.18672 58.9458 3.51932 0.00331017 -4.44424 
740 1 0.365272 59.8312 1.76025 0.0187878 -4.45645 
1548 1 0.365272 59.8312 5.2784 0.0187878 -4.45645 
141 1 1.65541 62.039 1.76025 0.581513 -4.30776 
142 1 3.7408 60.6578 1.76025 0.0312099 -4.44048 
143 1 2.90577 64.2669 1.76025 3.51998 -4.4058 
144 1 5.04753 62.7313 1.76025 2.84714 -4.33856 
145 1 7.22275 61.5149 1.76025 0.493008 -4.36355 
146 1 6.7974 63.1111 0.00117485 8.5904 -4.1152 
147 1 2.06255 60.2379 0.00117485 0.0262825 -4.42654 
148 1 1.0925 64.2669 0.00117485 8.16367 -4.28783 
149 1 5.44554 61.0687 0.00117485 0.0434743 -4.45186 
150 1 3.25358 62.3961 0.00117485 0.581916 -4.35483 
151 1 4.67142 64.2669 0.00117485 7.50951 -4.07019 
949 1 1.65541 62.039 5.2784 0.581513 -4.30776 
950 1 3.7408 60.6578 5.2784 0.0312099 -4.44048 
951 1 2.90577 64.2669 5.2784 3.51998 -4.4058 
952 1 5.04753 62.7313 5.2784 2.84714 -4.33856 
953 1 7.22275 61.5149 5.2784 0.493008 -4.36355 
954 1 6.7974 63.1111 3.51932 8.5904 -4.1152 
955 1 2.06255 60.2379 3.51932 0.0262825 -4.42654 
956 1 1.0925 64.2669 3.51932 8.16367 -4.28783 
957 1 5.44554 61.0687 3.51932 0.0434743 -4.45186 
958 1 3.25358 62.3961 3.51932 0.581916 -4.35483 
959 1 4.67142 64.2669 3.51932 7.50951 -4.07019 
152 1 3.25358 66.1377 0.00117485 0.581919 -4.35483 
153 1 5.04753 65.8025 1.76025 2.84714 -4.33856 
154 1 5.44554 67.4651 0.00117485 0.0434741 -4.45186 
155 1 4.18672 69.588 0.00117485 0.00331014 -4.44424 
156 1 5.90006 69.1427 1.76025 0.00648044 -4.4549 
157 1 3.7408 67.876 1.76025 0.0312098 -4.44048 
164 1 0.365273 68.7026 1.76025 0.0187877 -4.45645 
159 1 1.65541 66.4948 1.76025 0.581518 -4.30776 
163 1 2.48243 70.0124 1.76025 0.0029087 -4.44407 
161 1 2.06255 68.2959 0.00117485 0.0262825 -4.42654 
162 1 0.779377 70.4262 0.00117485 0.000737354 -4.45043 
360 1 6.7974 65.4227 0.00117485 8.59041 -4.1152 
364 1 7.22275 67.0189 1.76025 0.493012 -4.36355 
960 1 3.25358 66.1377 3.51932 0.581919 -4.35483 
961 1 5.04753 65.8025 5.2784 2.84714 -4.33856 
962 1 5.44554 67.4651 3.51932 0.0434741 -4.45186 
963 1 4.18672 69.588 3.51932 0.00331014 -4.44424 
964 1 5.90006 69.1427 5.2784 0.00648044 -4.4549 
965 1 3.7408 67.876 5.2784 0.0312098 -4.44048 
972 1 0.365273 68.7026 5.2784 0.0187877 -4.45645 
967 1 1.65541 66.4948 5.2784 0.581518 -4.30776 
971 1 2.48243 70.0124 5.2784 0.0029087 -4.44407 
969 1 2.06255 68.2959 3.51932 0.0262825 -4.42654 
970 1 0.779377 70.4262 3.51932 0.000737354 -4.45043 
1168 1 6.7974 65.4227 3.51932 8.59041 -4.1152 
1172 1 7.22275 67.0189 5.2784 0.493012 -4.36355 
165 1 6.32902 70.8496 0.00117485 0.00173003 -4.4521 
166 1 5.04813 72.9908 0.00117485 0.000242863 -4.45089 
167 1 4.62132 71.2853 1.76025 0.000439469 -4.45 
168 1 5.47397 74.7005 1.76025 2.22252e-05 -4.45019 
169 1 2.91078 71.717 0.00117485 0.000507736 -4.44894 
170 1 1.63326 73.8494 0.00117485 9.0778e-05 -4.44943 
171 1 3.34055 73.4208 1.76025 4.36213e-05 -4.45034 
172 1 1.20489 72.141 1.76025 0.000353988 -4.44879 
173 1 3.76814 75.1279 0.00117485 3.09867e-05 -4.45037 
174 1 2.06152 75.5562 1.76025 5.28457e-06 -4.45001 
177 1 0.355088 75.9836 0.00117485 1.46238e-05 -4.44976 
377 1 6.75308 72.5639 1.76025 0.000115704 -4.44993 
378 1 7.179 74.2751 0.00117485 3.95832e-05 -4.44951 
973 1 6.32902 70.8496 3.51932 0.00173003 -4.4521 
974 1 5.04813 72.9908 3.51932 0.000242863 -4.45089 
975 1 4.62132 71.2853 5.2784 0.000439469 -4.45 
976 1 5.47397 74.7005 5.2784 2.22252e-05 -4.45019 
977 1 2.91078 71.717 3.51932 0.000507736 -4.44894 
978 1 1.63326 73.8494 3.51932 9.0778e-05 -4.44943 
979 1 3.34055 73.4208 5.2784 4.36213e-05 -4.45034 
980 1 1.20489 72.141 5.2784 0.000353988 -4.44879 
981 1 3.76814 75.1279 3.51932 3.09867e-05 -4.45037 
982 1 2.06152 75.5562 5.2784 5.28457e-06 -4.45001 
985 1 0.355088 75.9836 3.51932 1.46238e-05 -4.44976 
1185 1 6.75308 72.5639 5.2784 0.000115704 -4.44993 
1186 1 7.179 74.2751 3.51932 3.95832e-05 -4.44951 
178 1 5.9006 76.41 0.00117485 4.12968e-06 -4.44987 
179 1 6.32782 78.1186 1.76025 2.20525e-06 -4.4499 
180 1 2.48895 77.2639 0.00117485 3.83004e-06 -4.45012 
181 1 4.19497 76.8366 1.76025 4.41023e-06 -4.45009 
182 1 4.62193 78.5454 0.00117485 4.25955e-07 -4.44996 
183 1 3.34316 80.6809 0.00117485 5.00342e-08 -4.44999 
184 1 5.04912 80.2539 1.76025 3.06898e-07 -4.44996 
185 1 2.91605 78.9723 1.76025 8.08371e-07 -4.45004 
186 1 0.782668 77.6915 1.76025 9.37985e-07 -4.44998 
187 1 1.21 79.3996 0.00117485 4.36874e-07 -4.45004 
189 1 1.63719 81.1079 1.76025 1.36112e-07 -4.45001 
389 1 6.75517 79.8268 0.00117485 1.89624e-07 -4.44998 
392 1 7.18244 81.5351 1.76025 4.76016e-08 -4.45001 
986 1 5.9006 76.41 3.51932 4.12968e-06 -4.44987 
987 1 6.32782 78.1186 5.2784 2.20525e-06 -4.4499 
988 1 2.48895 77.2639 3.51932 3.83004e-06 -4.45012 
989 1 4.19497 76.8366 5.2784 4.41023e-06 -4.45009 
990 1 4.62193 78.5454 3.51932 4.25955e-07 -4.44996 
991 1 3.34316 80.6809 3.51932 5.00342e-08 -4.44999 
992 1 5.04912 80.2539 5.2784 3.06898e-07 -4.44996 
993 1 2.91605 78.9723 5.2784 8.08371e-07 -4.45004 
994 1 0.782668 77.6915 5.2784 9.37985e-07 -4.44998 
995 1 1.21 79.3996 3.51932 4.36874e-07 -4.45004 
997 1 1.63719 81.1079 5.2784 1.36112e-07 -4.45001 
1197 1 6.75517 79.8268 3.51932 1.89624e-07 -4.44998 
1200 1 7.18244 81.5351 5.2784 4.76016e-08 -4.45001 
191 1 5.47638 81.9622 0.00117485 3.72772e-08 -4.44998 
192 1 4.19758 84.0976 0.00117485 6.55387e-09 -4.44999 
193 1 5.90362 83.6705 1.76025 5.83279e-09 -4.45 
194 1 3.77036 82.3893 1.76025 4.16442e-08 -4.44998 
195 1 6.33083 85.3789 0.00117485 5.62609e-09 -4.45 
196 1 4.62481 85.806 1.76025 1.82839e-09 -4.44999 
197 1 2.06436 82.8163 0.00117485 7.16707e-09 -4.44999 
198 1 0.785555 84.9518 0.00117485 5.3095e-10 -4.44999 
199 1 2.49156 84.5247 1.76025 7.5869e-09 -4.44999 
200 1 0.358357 83.2434 1.76025 2.23748e-08 -4.45 
201 1 2.91878 86.2331 0.00117485 1.82767e-09 -4.44999 
202 1 1.21276 86.6602 1.76025 5.62723e-09 -4.45 
999 1 5.47638 81.9622 3.51932 3.72772e-08 -4.44998 
1000 1 4.19758 84.0976 3.51932 6.55387e-09 -4.44999 
1001 1 5.90362 83.6705 5.2784 5.83279e-09 -4.45 
1002 1 3.77036 82.3893 5.2784 4.16442e-08 -4.44998 
1003 1 6.33083 85.3789 3.51932 5.62609e-09 -4.45 
1004 1 4.62481 85.806 5.2784 1.82839e-09 -4.44999 
1005 1 2.06436 82.8163 3.51932 7.16707e-09 -4.44999 
1006 1 0.785555 84.9518 3.51932 5.3095e-10 -4.44999 
1007 1 2.49156 84.5247 5.2784 7.5869e-09 -4.44999 
1008 1 0.358357 83.2434 5.2784 2.23748e-08 -4.45 
1009 1 2.91878 86.2331 3.51932 1.82767e-09 -4.44999 
1010 1 1.21276 86.6602 5.2784 5.62723e-09 -4.45 
203 1 12.7305 2.21223 0.00117485 7.16805e-09 -4.44999 
204 1 12.3033 0.503843 1.76025 7.58694e-09 -4.44999 
205 1 13.1577 3.92065 1.76025 1.36113e-07 -4.45001 
206 1 10.5973 0.930927 0.00117485 6.55566e-09 -4.44999 
207 1 9.3185 3.06635 0.00117485 3.72781e-08 -4.44998 
208 1 11.0245 2.63928 1.76025 4.16425e-08 -4.44998 
209 1 8.89126 1.35804 1.76025 5.83092e-09 -4.45 
210 1 11.4517 4.3477 0.00117485 5.0034e-08 -4.44999 
211 1 9.74576 4.77467 1.76025 3.06886e-07 -4.44996 
215 1 8.03971 5.20175 0.00117485 1.89631e-07 -4.44998 
214 1 7.61245 3.4935 1.76025 4.75993e-08 -4.45001 
1011 1 12.7305 2.21223 3.51932 7.16805e-09 -4.44999 
1012 1 12.3033 0.503843 5.2784 7.58694e-09 -4.44999 
1013 1 13.1577 3.92065 5.2784 1.36113e-07 -4.45001 
1014 1 10.5973 0.930927 3.51932 6.55566e-09 -4.44999 
1015 1 9.3185 3.06635 3.51932 3.72781e-08 -4.44998 
1016 1 11.0245 2.63928 5.2784 4.16425e-08 -4.44998 
1017 1 8.89126 1.35804 5.2784 5.83092e-09 -4.45 
1018 1 11.4517 4.3477 3.51932 5.0034e-08 -4.44999 
1019 1 9.74576 4.77467 5.2784 3.06886e-07 -4.44996 
1023 1 8.03971 5.20175 3.51932 1.89631e-07 -4.44998 
1022 1 7.61245 3.4935 5.2784 4.75993e-08 -4.45001 
414 1 14.0093 0.076768 0.00117485 5.31382e-10 -4.44999 
415 1 14.4365 1.78515 1.76025 2.23753e-08 -4.45 
1222 1 14.0093 0.076768 3.51932 5.31382e-10 -4.44999 
1223 1 14.4365 1.78515 5.2784 2.23753e-08 -4.45 
216 1 13.5849 5.629 0.00117485 4.36873e-07 -4.45004 
217 1 10.1729 6.48315 0.00117485 4.25956e-07 -4.44996 
218 1 11.8788 6.05622 1.76025 8.08375e-07 -4.45004 
219 1 12.3059 7.76463 0.00117485 3.83e-06 -4.45012 
220 1 11.0267 9.90069 0.00117485 3.09867e-05 -4.45037 
221 1 12.7334 9.47236 1.76025 5.28459e-06 -4.45001 
222 1 10.5999 8.19195 1.76025 4.41028e-06 -4.45009 
227 1 9.32092 10.328 1.76025 2.22254e-05 -4.45019 
224 1 8.46706 6.90995 1.76025 2.20526e-06 -4.4499 
225 1 8.89428 8.61852 0.00117485 4.12971e-06 -4.44987 
226 1 7.61588 10.7535 0.00117485 3.95832e-05 -4.44951 
1024 1 13.5849 5.629 3.51932 4.36873e-07 -4.45004 
1025 1 10.1729 6.48315 3.51932 4.25956e-07 -4.44996 
1026 1 11.8788 6.05622 5.2784 8.08375e-07 -4.45004 
1027 1 12.3059 7.76463 3.51932 3.83e-06 -4.45012 
1028 1 11.0267 9.90069 3.51932 3.09867e-05 -4.45037 
1029 1 12.7334 9.47236 5.2784 5.28459e-06 -4.45001 
1030 1 10.5999 8.19195 5.2784 4.41028e-06 -4.45009 
1035 1 9.32092 10.328 5.2784 2.22254e-05 -4.45019 
1032 1 8.46706 6.90995 5.2784 2.20526e-06 -4.4499 
1033 1 8.89428 8.61852 3.51932 4.12971e-06 -4.44987 
1034 1 7.61588 10.7535 3.51932 3.95832e-05 -4.44951 
426 1 14.4398 9.04493 0.00117485 1.46239e-05 -4.44976 
428 1 14.0122 7.33709 1.76025 9.37987e-07 -4.44998 
1234 1 14.4398 9.04493 3.51932 1.46239e-05 -4.44976 
1236 1 14.0122 7.33709 5.2784 9.37987e-07 -4.44998 
229 1 13.1616 11.1792 0.00117485 9.07787e-05 -4.44943 
230 1 11.8841 13.3115 0.00117485 0.000507741 -4.44894 
231 1 13.59 12.8875 1.76025 0.000353988 -4.44879 
232 1 11.4543 11.6077 1.76025 4.36215e-05 -4.45034 
233 1 12.3125 15.0162 1.76025 0.0029087 -4.44407 
234 1 9.74675 12.0378 0.00117485 0.000242864 -4.45089 
235 1 8.46586 14.179 0.00117485 0.00173004 -4.4521 
236 1 10.1736 13.7433 1.76025 0.00043947 -4.45 
237 1 8.04181 12.4647 1.76025 0.000115705 -4.44993 
238 1 10.6082 15.4406 0.00117485 0.00331017 -4.44424 
239 1 8.89483 15.8859 1.76025 0.00648046 -4.4549 
1037 1 13.1616 11.1792 3.51932 9.07787e-05 -4.44943 
1038 1 11.8841 13.3115 3.51932 0.000507741 -4.44894 
1039 1 13.59 12.8875 5.2784 0.000353988 -4.44879 
1040 1 11.4543 11.6077 5.2784 4.36215e-05 -4.45034 
1041 1 12.3125 15.0162 5.2784 0.0029087 -4.44407 
1042 1 9.74675 12.0378 3.51932 0.000242864 -4.45089 
1043 1 8.46586 14.179 3.51932 0.00173004 -4.4521 
1044 1 10.1736 13.7433 5.2784 0.00043947 -4.45 
1045 1 8.04181 12.4647 5.2784 0.000115705 -4.44993 
1046 1 10.6082 15.4406 3.51932 0.00331017 -4.44424 
1047 1 8.89483 15.8859 5.2784 0.00648046 -4.4549 
442 1 14.0155 14.6023 0.00117485 0.000737357 -4.45043 
443 1 14.4296 16.3259 1.76025 0.0187878 -4.45645 
1250 1 14.0155 14.6023 3.51932 0.000737357 -4.45043 
1251 1 14.4296 16.3259 5.2784 0.0187878 -4.45645 
242 1 12.7323 16.7327 0.00117485 0.0262825 -4.42654 
243 1 13.7024 20.7617 0.00117485 8.16367 -4.28783 
244 1 13.1395 18.5338 1.76025 0.581514 -4.30776 
245 1 9.34934 17.5635 0.00117485 0.0434743 -4.45186 
246 1 11.0541 17.1526 1.76025 0.0312099 -4.44048 
247 1 11.5413 18.8909 0.00117485 0.581916 -4.35483 
248 1 10.1235 20.7617 0.00117485 7.50951 -4.07019 
249 1 11.8891 20.7617 1.76025 3.51998 -4.4058 
250 1 9.74735 19.226 1.76025 2.84714 -4.33856 
251 1 7.57213 18.0096 1.76025 0.493009 -4.36355 
252 1 7.99748 19.6058 0.00117485 8.5904 -4.1152 
1050 1 12.7323 16.7327 3.51932 0.0262825 -4.42654 
1051 1 13.7024 20.7617 3.51932 8.16367 -4.28783 
1052 1 13.1395 18.5338 5.2784 0.581514 -4.30776 
1053 1 9.34934 17.5635 3.51932 0.0434743 -4.45186 
1054 1 11.0541 17.1526 5.2784 0.0312099 -4.44048 
1055 1 11.5413 18.8909 3.51932 0.581916 -4.35483 
1056 1 10.1235 20.7617 3.51932 7.50951 -4.07019 
1057 1 11.8891 20.7617 5.2784 3.51998 -4.4058 
1058 1 9.74735 19.226 5.2784 2.84714 -4.33856 
1059 1 7.57213 18.0096 5.2784 0.493009 -4.36355 
1060 1 7.99748 19.6058 3.51932 8.5904 -4.1152 
253 1 7.99748 21.9175 0.00117485 8.59041 -4.1152 
254 1 9.74735 22.2973 1.76025 2.84714 -4.33856 
255 1 8.89482 25.6375 1.76025 0.00648044 -4.4549 
256 1 11.0541 24.3707 1.76025 0.0312098 -4.44048 
257 1 13.1395 22.9895 1.76025 0.581518 -4.30776 
258 1 12.3125 26.5071 1.76025 0.0029087 -4.44407 
259 1 14.4296 25.1974 1.76025 0.0187877 -4.45645 
260 1 11.5413 22.6325 0.00117485 0.581919 -4.35483 
261 1 9.34934 23.9598 0.00117485 0.0434741 -4.45186 
262 1 10.6082 26.0827 0.00117485 0.00331014 -4.44424 
265 1 14.0155 26.921 0.00117485 0.000737354 -4.45043 
264 1 12.7323 24.7906 0.00117485 0.0262825 -4.42654 
56 1 7.57213 23.5137 1.76025 0.493012 -4.36355 
1061 1 7.99748 21.9175 3.51932 8.59041 -4.1152 
1062 1 9.74735 22.2973 5.2784 2.84714 -4.33856 
1063 1 8.89482 25.6375 5.2784 0.00648044 -4.4549 
1064 1 11.0541 24.3707 5.2784 0.0312098 -4.44048 
1065 1 13.1395 22.9895 5.2784 0.581518 -4.30776 
1066 1 12.3125 26.5071 5.2784 0.0029087 -4.44407 
1067 1 14.4296 25.1974 5.2784 0.0187877 -4.45645 
1068 1 11.5413 22.6325 3.51932 0.581919 -4.35483 
1069 1 9.34934 23.9598 3.51932 0.0434741 -4.45186 
1070 1 10.6082 26.0827 3.51932 0.00331014 -4.44424 
1073 1 14.0155 26.921 3.51932 0.000737354 -4.45043 
1072 1 12.7323 24.7906 3.51932 0.0262825 -4.42654 
864 1 7.57213 23.5137 5.2784 0.493012 -4.36355 
266 1 8.04181 29.0586 1.76025 0.000115704 -4.44993 
267 1 10.1736 27.78 1.76025 0.000439469 -4.45 
268 1 9.32091 31.1953 1.76025 2.22251e-05 -4.45019 
269 1 11.4543 29.9156 1.76025 4.36215e-05 -4.45034 
270 1 13.59 28.6358 1.76025 0.000353988 -4.44879 
271 1 12.7334 32.051 1.76025 5.28458e-06 -4.45001 
278 1 14.4398 32.4784 0.00117485 1.46239e-05 -4.44976 
273 1 8.46586 27.3444 0.00117485 0.00173003 -4.4521 
274 1 9.74675 29.4855 0.00117485 0.000242864 -4.45089 
275 1 11.8841 28.2118 0.00117485 0.000507736 -4.44894 
276 1 13.1616 30.3441 0.00117485 9.07779e-05 -4.44943 
277 1 11.0267 31.6226 0.00117485 3.09868e-05 -4.45037 
76 1 7.61588 30.7698 0.00117485 3.95833e-05 -4.44951 
1074 1 8.04181 29.0586 5.2784 0.000115704 -4.44993 
1075 1 10.1736 27.78 5.2784 0.000439469 -4.45 
1076 1 9.32091 31.1953 5.2784 2.22251e-05 -4.45019 
1077 1 11.4543 29.9156 5.2784 4.36215e-05 -4.45034 
1078 1 13.59 28.6358 5.2784 0.000353988 -4.44879 
1079 1 12.7334 32.051 5.2784 5.28458e-06 -4.45001 
1086 1 14.4398 32.4784 3.51932 1.46239e-05 -4.44976 
1081 1 8.46586 27.3444 3.51932 0.00173003 -4.4521 
1082 1 9.74675 29.4855 3.51932 0.000242864 -4.45089 
1083 1 11.8841 28.2118 3.51932 0.000507736 -4.44894 
1084 1 13.1616 30.3441 3.51932 9.07779e-05 -4.44943 
1085 1 11.0267 31.6226 3.51932 3.09868e-05 -4.45037 
884 1 7.61588 30.7698 3.51932 3.95833e-05 -4.44951 
279 1 8.46706 34.6134 1.76025 2.20525e-06 -4.4499 
280 1 10.5999 33.3314 1.76025 4.4102e-06 -4.45009 
281 1 9.74576 36.7486 1.76025 3.06889e-07 -4.44996 
282 1 11.8788 35.4671 1.76025 8.08344e-07 -4.45004 
283 1 14.0122 34.1862 1.76025 9.3797e-07 -4.44998 
284 1 13.1577 37.6027 1.76025 1.36099e-07 -4.45001 
285 1 8.89428 32.9048 0.00117485 4.12975e-06 -4.44987 
286 1 8.03971 36.3216 0.00117485 1.89616e-07 -4.44998 
287 1 12.3059 33.7587 0.00117485 3.83003e-06 -4.45012 
288 1 10.1729 35.0402 0.00117485 4.25964e-07 -4.44996 
289 1 11.4517 37.1756 0.00117485 5.00363e-08 -4.44999 
290 1 13.5849 35.8943 0.00117485 4.36885e-07 -4.45004 
83 1 7.61244 38.0298 1.76025 4.7601e-08 -4.45001 
1087 1 8.46706 34.6134 5.2784 2.20525e-06 -4.4499 
1088 1 10.5999 33.3314 5.2784 4.4102e-06 -4.45009 
1089 1 9.74576 36.7486 5.2784 3.06889e-07 -4.44996 
1090 1 11.8788 35.4671 5.2784 8.08344e-07 -4.45004 
1091 1 14.0122 34.1862 5.2784 9.3797e-07 -4.44998 
1092 1 13.1577 37.6027 5.2784 1.36099e-07 -4.45001 
1093 1 8.89428 32.9048 3.51932 4.12975e-06 -4.44987 
1094 1 8.03971 36.3216 3.51932 1.89616e-07 -4.44998 
1095 1 12.3059 33.7587 3.51932 3.83003e-06 -4.45012 
1096 1 10.1729 35.0402 3.51932 4.25964e-07 -4.44996 
1097 1 11.4517 37.1756 3.51932 5.00363e-08 -4.44999 