ITEM: TIMESTEP
0
ITEM: NUMBER OF ATOMS
1616
ITEM: BOX BOUNDS pp pp pp
4.8760000000000001e-03 2.9010034999999998e+01
3.4254000000000000e-02 8.7044736000000000e+01
4.2499999999999998e-04 7.0367240000000004e+00
ITEM: ATOMS id type x y z c_PE c_csym 
1020 1 6.75804 0.076768 5.2784 -4.44999 4.37e-09 
212 1 6.75804 0.076768 1.76025 -4.44999 4.326e-09 
809 1 5.05203 0.503843 3.51932 -4.44998 1.7818e-08 
1 1 5.05203 0.503843 0.001175 -4.44998 1.7422e-08 
813 1 3.34601 0.930927 5.2784 -4.44998 1.643e-08 
5 1 3.34601 0.930927 1.76025 -4.44998 1.6386e-08 
812 1 1.63997 1.35804 3.51932 -4.44999 6.913e-09 
4 1 1.63997 1.35804 0.001175 -4.44999 6.517e-09 
1021 1 7.18524 1.78515 3.51932 -4.45 2.3621e-08 
213 1 7.18524 1.78515 0.001175 -4.45 2.3225e-08 
811 1 5.47923 2.21223 5.2784 -4.45 6.975e-09 
3 1 5.47923 2.21223 1.76025 -4.45 6.931e-09 
814 1 3.77324 2.63928 3.51932 -4.44998 4.6087e-08 
6 1 3.77324 2.63928 0.001175 -4.44998 4.5691e-08 
817 1 2.06721 3.06635 5.2784 -4.44999 4.0722e-08 
9 1 2.06721 3.06635 1.76025 -4.44999 4.0678e-08 
820 1 0.361156 3.4935 3.51932 -4.45 5.0462e-08 
12 1 0.361156 3.4935 0.001175 -4.45 5.0066e-08 
810 1 5.90641 3.92065 3.51932 -4.45002 1.33e-07 
2 1 5.90641 3.92065 0.001175 -4.45002 1.32604e-07 
816 1 4.20043 4.3477 5.2784 -4.44999 5.0944e-08 
8 1 4.20043 4.3477 1.76025 -4.44999 5.09e-08 
815 1 2.49447 4.77467 3.51932 -4.44996 3.16548e-07 
7 1 2.49447 4.77467 0.001175 -4.44996 3.16152e-07 
821 1 0.788424 5.20175 5.2784 -4.44997 1.73668e-07 
13 1 0.788424 5.20175 1.76025 -4.44997 1.73624e-07 
822 1 6.33359 5.629 5.2784 -4.45004 4.38544e-07 
14 1 6.33359 5.629 1.76025 -4.45004 4.385e-07 
823 1 4.62755 6.05622 3.51932 -4.45004 8.153e-07 
15 1 4.62755 6.05622 0.001175 -4.45004 8.14904e-07 
826 1 2.92166 6.48315 5.2784 -4.44996 4.2388e-07 
18 1 2.92166 6.48315 1.76025 -4.44996 4.23836e-07 
829 1 1.21577 6.90995 3.51932 -4.4499 2.1969e-06 
21 1 1.21577 6.90995 0.001175 -4.4499 2.1965e-06 
1031 1 6.76092 7.33709 3.51932 -4.44998 9.318e-07 
223 1 6.76092 7.33709 0.001175 -4.44998 9.31404e-07 
825 1 5.05464 7.76463 5.2784 -4.45012 3.80804e-06 
17 1 5.05464 7.76463 1.76025 -4.45012 3.808e-06 
824 1 3.34863 8.19195 3.51932 -4.45009 4.4247e-06 
16 1 3.34863 8.19195 0.001175 -4.45009 4.4243e-06 
831 1 1.64299 8.61852 5.2784 -4.44987 3.96757e-06 
23 1 1.64299 8.61852 1.76025 -4.44986 3.96752e-06 
1036 1 7.1885 9.04493 5.2784 -4.44976 1.44744e-05 
228 1 7.1885 9.04493 1.76025 -4.44976 1.44744e-05 
827 1 5.48207 9.47236 3.51932 -4.45001 5.3617e-06 
19 1 5.48207 9.47236 0.001175 -4.45001 5.3613e-06 
828 1 3.77545 9.90069 5.2784 -4.45037 3.1527e-05 
20 1 3.77545 9.90069 1.76025 -4.45037 3.1527e-05 
833 1 2.06963 10.328 3.51932 -4.45019 2.21244e-05 
25 1 2.06963 10.328 0.001175 -4.45019 2.2124e-05 
834 1 0.364591 10.7535 5.2784 -4.44952 3.98898e-05 
26 1 0.364591 10.7535 1.76025 -4.44951 3.98898e-05 
836 1 5.91033 11.1792 5.2784 -4.44942 9.07462e-05 
28 1 5.91033 11.1792 1.76025 -4.44942 9.07462e-05 
835 1 4.20304 11.6077 3.51932 -4.45034 4.35693e-05 
27 1 4.20304 11.6077 0.001175 -4.45034 4.35689e-05 
841 1 2.49546 12.0378 5.2784 -4.4509 0.000245179 
33 1 2.49546 12.0378 1.76025 -4.4509 0.000245179 
840 1 0.790516 12.4647 3.51932 -4.44993 0.000117694 
32 1 0.790516 12.4647 0.001175 -4.44993 0.000117694 
837 1 6.3387 12.8875 3.51932 -4.44879 0.000356442 
29 1 6.3387 12.8875 0.001175 -4.44879 0.000356441 
839 1 4.63281 13.3115 5.2784 -4.44895 0.000511008 
31 1 4.63281 13.3115 1.76025 -4.44895 0.000511008 
842 1 2.92227 13.7433 3.51932 -4.45001 0.000438974 
34 1 2.92227 13.7433 0.001175 -4.45001 0.000438974 
845 1 1.21457 14.179 5.2784 -4.4521 0.00173982 
37 1 1.21457 14.179 1.76025 -4.45209 0.00173982 
1048 1 6.76422 14.6023 5.2784 -4.45044 0.000732034 
240 1 6.76422 14.6023 1.76025 -4.45044 0.000732034 
838 1 5.06116 15.0162 3.51932 -4.44407 0.0028987 
30 1 5.06116 15.0162 0.001175 -4.44407 0.0028987 
844 1 3.35687 15.4406 5.2784 -4.44424 0.00331601 
36 1 3.35687 15.4406 1.76025 -4.44424 0.00331601 
843 1 1.64354 15.8859 3.51932 -4.4549 0.00649489 
35 1 1.64354 15.8859 0.001175 -4.4549 0.00649489 
1049 1 7.17832 16.3259 3.51932 -4.45644 0.0187785 
241 1 7.17832 16.3259 0.001175 -4.45644 0.0187785 
849 1 5.48104 16.7327 5.2784 -4.42654 0.0262962 
41 1 5.48104 16.7327 1.76025 -4.42654 0.0262962 
851 1 3.80279 17.1526 3.51932 -4.44048 0.0312334 
43 1 3.80279 17.1526 0.001175 -4.44048 0.0312334 
854 1 2.09805 17.5635 5.2784 -4.45184 0.0434784 
46 1 2.09805 17.5635 1.76025 -4.45184 0.0434784 
857 1 0.32084 18.0096 3.51932 -4.36354 0.493223 
49 1 0.32084 18.0096 0.001175 -4.36354 0.493223 
848 1 5.88818 18.5338 3.51932 -4.30775 0.581565 
40 1 5.88818 18.5338 0.001175 -4.30775 0.581565 
853 1 4.29001 18.8909 5.2784 -4.35483 0.581885 
45 1 4.29001 18.8909 1.76025 -4.35483 0.581885 
852 1 2.49606 19.226 3.51932 -4.33857 2.84742 
44 1 2.49606 19.226 0.001175 -4.33857 2.84742 
858 1 0.746189 19.6058 5.2784 -4.11519 8.59055 
50 1 0.746189 19.6058 1.76025 -4.11519 8.59053 
856 1 2.87218 20.7617 5.2784 -4.07023 7.50944 
48 1 2.87218 20.7617 1.76025 -4.07023 7.50944 
855 1 4.63782 20.7617 3.51932 -4.4058 3.51978 
47 1 4.63782 20.7617 0.001175 -4.4058 3.51978 
850 1 6.45109 20.7617 5.2784 -4.28784 8.1638 
42 1 6.45109 20.7617 1.76025 -4.28785 8.1638 
859 1 0.746188 21.9175 5.2784 -4.11519 8.59022 
51 1 0.746188 21.9175 1.76025 -4.11519 8.59021 
866 1 2.49606 22.2973 3.51932 -4.33853 2.84739 
58 1 2.49606 22.2973 0.001175 -4.33853 2.84739 
861 1 4.29001 22.6325 5.2784 -4.35482 0.581971 
53 1 4.29001 22.6325 1.76025 -4.35482 0.581971 
869 1 5.88818 22.9895 3.51932 -4.30777 0.581457 
61 1 5.88818 22.9895 0.001175 -4.30777 0.581457 
1475 1 0.32084 23.5137 3.51932 -4.36356 0.492967 
667 1 0.32084 23.5137 0.001175 -4.36356 0.492967 
860 1 2.09805 23.9598 5.2784 -4.45186 0.0434689 
52 1 2.09805 23.9598 1.76025 -4.45186 0.0434689 
867 1 3.80279 24.3707 3.51932 -4.44048 0.0312015 
59 1 3.80279 24.3707 0.001175 -4.44048 0.0312015 
863 1 5.48104 24.7906 5.2784 -4.42653 0.0262888 
55 1 5.48104 24.7906 1.76025 -4.42653 0.0262888 
870 1 7.17832 25.1974 3.51932 -4.45645 0.0187797 
62 1 7.17832 25.1974 0.001175 -4.45645 0.0187797 
868 1 1.64353 25.6375 3.51932 -4.4549 0.00646597 
60 1 1.64353 25.6375 0.001175 -4.4549 0.00646597 
862 1 3.35687 26.0827 5.2784 -4.44424 0.00330194 
54 1 3.35687 26.0827 1.76025 -4.44424 0.00330194 
871 1 5.06116 26.5071 3.51932 -4.44407 0.00289875 
63 1 5.06116 26.5071 0.001175 -4.44407 0.00289875 
865 1 6.76421 26.921 5.2784 -4.45044 0.000735999 
57 1 6.76421 26.921 1.76025 -4.45043 0.000735999 
872 1 1.21457 27.3444 5.2784 -4.45209 0.00171725 
64 1 1.21457 27.3444 1.76025 -4.45209 0.00171725 
878 1 2.92227 27.78 3.51932 -4.45 0.000436003 
70 1 2.92227 27.78 0.001175 -4.45 0.000436003 
874 1 4.63281 28.2118 5.2784 -4.44895 0.000511127 
66 1 4.63281 28.2118 1.76025 -4.44895 0.000511127 
881 1 6.3387 28.6358 3.51932 -4.44878 0.000354226 
73 1 6.3387 28.6358 0.001175 -4.44878 0.000354226 
879 1 0.790516 29.0586 3.51932 -4.44992 0.000116444 
71 1 0.790516 29.0586 0.001175 -4.44992 0.000116443 
873 1 2.49546 29.4855 5.2784 -4.45089 0.000244412 
65 1 2.49546 29.4855 1.76025 -4.45089 0.000244412 
882 1 4.20304 29.9156 3.51932 -4.45034 4.33686e-05 
74 1 4.20304 29.9156 0.001175 -4.45034 4.33682e-05 
876 1 5.91033 30.3441 5.2784 -4.44943 9.0662e-05 
68 1 5.91033 30.3441 1.76025 -4.44943 9.0662e-05 
1484 1 0.364591 30.7698 5.2784 -4.44952 3.92606e-05 
676 1 0.364591 30.7698 1.76025 -4.44952 3.92606e-05 
880 1 2.06962 31.1953 3.51932 -4.45019 2.22043e-05 
72 1 2.06962 31.1953 0.001175 -4.45019 2.22039e-05 
875 1 3.77545 31.6226 5.2784 -4.45037 3.25205e-05 
67 1 3.77545 31.6226 1.76025 -4.45037 3.25205e-05 
883 1 5.48207 32.051 3.51932 -4.45002 5.5797e-06 
75 1 5.48207 32.051 0.001175 -4.45002 5.5793e-06 
877 1 7.1885 32.4784 5.2784 -4.44976 1.47897e-05 
69 1 7.1885 32.4784 1.76025 -4.44976 1.47897e-05 
885 1 1.64299 32.9048 5.2784 -4.44987 4.08387e-06 
77 1 1.64299 32.9048 1.76025 -4.44987 4.08382e-06 
893 1 3.34863 33.3314 3.51932 -4.4501 4.3656e-06 
85 1 3.34863 33.3314 0.001175 -4.4501 4.3652e-06 
888 1 5.05464 33.7587 5.2784 -4.45012 3.94574e-06 
80 1 5.05464 33.7587 1.76025 -4.45012 3.9457e-06 
896 1 6.76092 34.1862 3.51932 -4.44998 8.186e-07 
88 1 6.76092 34.1862 0.001175 -4.44998 8.18204e-07 
892 1 1.21577 34.6134 3.51932 -4.4499 2.3899e-06 
84 1 1.21577 34.6134 0.001175 -4.4499 2.38951e-06 
887 1 2.92166 35.0402 5.2784 -4.44995 5.23193e-07 
79 1 2.92166 35.0402 1.76025 -4.44995 5.23149e-07 
894 1 4.62754 35.4671 3.51932 -4.45004 7.261e-07 
86 1 4.62754 35.4671 0.001175 -4.45004 7.25704e-07 
890 1 6.33359 35.8943 5.2784 -4.45004 5.31044e-07 
82 1 6.33359 35.8943 1.76025 -4.45004 5.31e-07 
886 1 0.788423 36.3216 5.2784 -4.44997 2.87126e-07 
78 1 0.788423 36.3216 1.76025 -4.44997 2.87082e-07 
895 1 2.49447 36.7486 3.51932 -4.44995 2.20263e-07 
87 1 2.49447 36.7486 0.001175 -4.44995 2.19867e-07 
889 1 4.20043 37.1756 5.2784 -4.44932 7.8244e-08 
81 1 4.20043 37.1756 1.76025 -4.44932 7.82e-08 
897 1 5.90641 37.6027 3.51932 -4.44868 7.48e-08 
89 1 5.90641 37.6027 0.001175 -4.44868 7.4404e-08 
1503 1 0.361155 38.0298 3.51932 -4.44935 1.29796e-07 
695 1 0.361155 38.0298 0.001175 -4.44935 1.294e-07 
898 1 2.06721 38.457 5.2784 -4.45078 1.44764e-07 
90 1 2.06721 38.457 1.76025 -4.45078 1.4472e-07 
904 1 3.77324 38.884 3.51932 -4.45417 4.72e-08 
96 1 3.77324 38.884 0.001175 -4.45417 4.6804e-08 
901 1 5.47923 39.3111 5.2784 -4.44759 1.1344e-08 
93 1 5.47923 39.3111 1.76025 -4.44759 1.13e-08 
907 1 7.18523 39.7382 3.51932 -4.45351 4.79e-08 
99 1 7.18523 39.7382 0.001175 -4.45351 4.7504e-08 
905 1 1.63997 40.1653 3.51932 -4.45495 2.4148e-08 
97 1 1.63997 40.1653 0.001175 -4.45495 2.3752e-08 
900 1 3.34601 40.5924 5.2784 -4.49004 3.1844e-08 
92 1 3.34601 40.5924 1.76025 -4.49004 3.18e-08 
908 1 5.05203 41.0195 3.51932 -4.51917 6.4e-08 
100 1 5.05203 41.0195 0.001175 -4.51917 6.3604e-08 
903 1 6.75804 41.4465 5.2784 -4.48882 6.1144e-08 
95 1 6.75804 41.4465 1.76025 -4.48881 6.11e-08 
899 1 1.21276 41.8736 5.2784 -4.45168 4.1518e-08 
91 1 1.21276 41.8736 1.76025 -4.45168 4.1474e-08 
906 1 2.91878 42.3007 3.51932 -4.51919 4.1525e-08 
98 1 2.91878 42.3007 0.001175 -4.51919 4.1129e-08 
902 2 4.62481 42.7278 5.2784 -2.75716 3.1044e-08 
94 2 4.62481 42.7278 1.76025 -2.75716 3.1e-08 
909 1 6.33083 43.1549 3.51932 -4.51921 1.19e-08 
101 1 6.33083 43.1549 0.001175 -4.51921 1.1504e-08 
916 1 0.785555 43.582 3.51932 -4.45169 8.62e-10 
108 1 0.785555 43.582 0.001175 -4.45169 4.66e-10 
910 1 2.49156 44.0091 5.2784 -4.48882 1.3603e-08 
102 1 2.49156 44.0091 1.76025 -4.48882 1.3559e-08 
918 1 4.19758 44.4362 3.51932 -4.51915 3.23e-08 
110 1 4.19758 44.4362 0.001175 -4.51915 3.1904e-08 
913 1 5.90362 44.8633 5.2784 -4.49003 4.3844e-08 
105 1 5.90362 44.8633 1.76025 -4.49003 4.38e-08 
1521 1 0.358357 45.2904 5.2784 -4.45496 4.4188e-08 
713 1 0.358357 45.2904 1.76025 -4.45496 4.4144e-08 
917 1 2.06436 45.7175 3.51932 -4.4535 4.2244e-08 
109 1 2.06436 45.7175 0.001175 -4.4535 4.1848e-08 
912 1 3.77036 46.1445 5.2784 -4.44756 9.1444e-08 
104 1 3.77036 46.1445 1.76025 -4.44756 9.14e-08 
919 1 5.47638 46.5716 3.51932 -4.45416 1.7e-08 
111 1 5.47638 46.5716 0.001175 -4.45416 1.6604e-08 
915 1 7.18244 46.9987 5.2784 -4.45078 5.1144e-08 
107 1 7.18244 46.9987 1.76025 -4.45078 5.11e-08 
911 1 1.63719 47.4259 5.2784 -4.44935 2.46196e-07 
103 1 1.63719 47.4259 1.76025 -4.44935 2.46152e-07 
920 1 3.34316 47.8529 3.51932 -4.44866 1.113e-07 
112 1 3.34316 47.8529 0.001175 -4.44866 1.10904e-07 
914 1 5.04912 48.2799 5.2784 -4.4493 3.62244e-07 
106 1 5.04912 48.2799 1.76025 -4.4493 3.622e-07 
922 1 6.75517 48.707 3.51932 -4.44998 1.679e-07 
114 1 6.75517 48.707 0.001175 -4.44998 1.67504e-07 
930 1 1.21 49.1342 3.51932 -4.45004 3.92172e-07 
122 1 1.21 49.1342 0.001175 -4.45004 3.91776e-07 
924 1 2.91605 49.5615 5.2784 -4.45005 1.20909e-06 
116 1 2.91605 49.5615 1.76025 -4.45004 1.20904e-06 
931 1 4.62193 49.9884 3.51932 -4.44996 4.04e-07 
123 1 4.62193 49.9884 0.001175 -4.44996 4.03604e-07 
927 1 6.32782 50.4152 5.2784 -4.4499 2.15294e-06 
119 1 6.32782 50.4152 1.76025 -4.4499 2.1529e-06 
923 1 0.782668 50.8423 5.2784 -4.44999 1.24585e-06 
115 1 0.782668 50.8423 1.76025 -4.44999 1.2458e-06 
932 1 2.48895 51.2699 3.51932 -4.45012 3.88278e-06 
124 1 2.48895 51.2699 0.001175 -4.45012 3.88238e-06 
926 1 4.19497 51.6972 5.2784 -4.45009 4.42454e-06 
118 1 4.19497 51.6972 1.76025 -4.45009 4.4245e-06 
934 1 5.9006 52.1238 3.51932 -4.44987 3.9345e-06 
126 1 5.9006 52.1238 0.001175 -4.44987 3.9341e-06 
1540 1 0.355087 52.5502 3.51932 -4.44975 1.44018e-05 
732 1 0.355087 52.5502 0.001175 -4.44975 1.44014e-05 
925 1 2.06152 52.9776 5.2784 -4.45001 5.32781e-06 
117 1 2.06152 52.9776 1.76025 -4.45001 5.32776e-06 
933 1 3.76814 53.4059 3.51932 -4.45037 2.98102e-05 
125 1 3.76814 53.4059 0.001175 -4.45037 2.98098e-05 
928 1 5.47397 53.8333 5.2784 -4.45019 2.34505e-05 
120 1 5.47397 53.8333 1.76025 -4.45019 2.34505e-05 
935 1 7.179 54.2587 3.51932 -4.44951 4.05764e-05 
127 1 7.179 54.2587 0.001175 -4.44951 4.0576e-05 
942 1 1.63326 54.6844 3.51932 -4.44943 9.22002e-05 
134 1 1.63326 54.6844 0.001175 -4.44943 9.21998e-05 
937 1 3.34055 55.113 5.2784 -4.45035 4.34383e-05 
129 1 3.34055 55.113 1.76025 -4.45035 4.34383e-05 
945 1 5.04813 55.543 3.51932 -4.45089 0.000240076 
137 1 5.04813 55.543 0.001175 -4.45089 0.000240076 
940 1 6.75308 55.9699 5.2784 -4.44994 0.000116199 
132 1 6.75308 55.9699 1.76025 -4.44993 0.000116199 
936 1 1.20489 56.3928 5.2784 -4.44879 0.00035308 
128 1 1.20489 56.3928 1.76025 -4.44879 0.00035308 
943 1 2.91078 56.8168 3.51932 -4.44894 0.00050555 
135 1 2.91078 56.8168 0.001175 -4.44894 0.000505549 
939 1 4.62132 57.2485 5.2784 -4.45 0.000441837 
131 1 4.62132 57.2485 1.76025 -4.45 0.000441837 
946 1 6.32902 57.6842 3.51932 -4.4521 0.00172845 
138 1 6.32902 57.6842 0.001175 -4.4521 0.00172845 
944 1 0.779376 58.1076 3.51932 -4.45043 0.000742926 
136 1 0.779376 58.1076 0.001175 -4.45043 0.000742925 
938 1 2.48243 58.5214 5.2784 -4.44406 0.0029167 
130 1 2.48243 58.5214 1.76025 -4.44406 0.0029167 
947 1 4.18672 58.9458 3.51932 -4.44423 0.00331514 
139 1 4.18672 58.9458 0.001175 -4.44423 0.00331514 
941 1 5.90006 59.3911 5.2784 -4.45489 0.00648576 
133 1 5.90006 59.3911 1.76025 -4.45489 0.00648576 
1548 1 0.365272 59.8312 5.2784 -4.45645 0.0188115 
740 1 0.365272 59.8312 1.76025 -4.45645 0.0188115 
955 1 2.06255 60.2379 3.51932 -4.42655 0.0263015 
147 1 2.06255 60.2379 0.001175 -4.42655 0.0263015 
950 1 3.7408 60.6578 5.2784 -4.44049 0.0312223 
142 1 3.7408 60.6578 1.76025 -4.44049 0.0312223 
957 1 5.44554 61.0687 3.51932 -4.45187 0.0434899 
149 1 5.44554 61.0687 0.001175 -4.45187 0.0434899 
953 1 7.22275 61.5149 5.2784 -4.36356 0.492882 
145 1 7.22275 61.5149 1.76025 -4.36356 0.492882 
949 1 1.65541 62.039 5.2784 -4.30776 0.581445 
141 1 1.65541 62.039 1.76025 -4.30776 0.581445 
958 1 3.25358 62.3961 3.51932 -4.35483 0.58188 
150 1 3.25358 62.3961 0.001175 -4.35483 0.58188 
952 1 5.04753 62.7313 5.2784 -4.33857 2.84704 
144 1 5.04753 62.7313 1.76025 -4.33857 2.84704 
954 1 6.7974 63.1111 3.51932 -4.11517 8.59011 
146 1 6.7974 63.1111 0.001175 -4.11517 8.59013 
956 1 1.0925 64.2669 3.51932 -4.28785 8.1634 
148 1 1.0925 64.2669 0.001175 -4.28785 8.1634 
951 1 2.90577 64.2669 5.2784 -4.4058 3.52006 
143 1 2.90577 64.2669 1.76025 -4.4058 3.52006 
959 1 4.67142 64.2669 3.51932 -4.07017 7.50978 
151 1 4.67142 64.2669 0.001175 -4.07016 7.50978 
1168 1 6.7974 65.4227 3.51932 -4.11517 8.59011 
360 1 6.7974 65.4227 0.001175 -4.11517 8.59013 
961 1 5.04753 65.8025 5.2784 -4.33857 2.84704 
153 1 5.04753 65.8025 1.76025 -4.33857 2.84704 
960 1 3.25358 66.1377 3.51932 -4.35483 0.58188 
152 1 3.25358 66.1377 0.001175 -4.35483 0.58188 
967 1 1.65541 66.4948 5.2784 -4.30776 0.581445 
159 1 1.65541 66.4948 1.76025 -4.30776 0.581445 
1172 1 7.22275 67.0189 5.2784 -4.36356 0.492882 
364 1 7.22275 67.0189 1.76025 -4.36356 0.492882 
962 1 5.44554 67.4651 3.51932 -4.45187 0.0434899 
154 1 5.44554 67.4651 0.001175 -4.45187 0.0434899 
965 1 3.7408 67.876 5.2784 -4.44049 0.0312223 
157 1 3.7408 67.876 1.76025 -4.44049 0.0312223 
969 1 2.06255 68.2959 3.51932 -4.42655 0.0263013 
161 1 2.06255 68.2959 0.001175 -4.42655 0.0263013 
972 1 0.365273 68.7026 5.2784 -4.45645 0.0188118 
164 1 0.365273 68.7026 1.76025 -4.45645 0.0188118 
964 1 5.90006 69.1427 5.2784 -4.45489 0.00648576 
156 1 5.90006 69.1427 1.76025 -4.45489 0.00648576 
963 1 4.18672 69.588 3.51932 -4.44423 0.00331514 
155 1 4.18672 69.588 0.001175 -4.44423 0.00331514 
971 1 2.48243 70.0124 5.2784 -4.44406 0.00291674 
163 1 2.48243 70.0124 1.76025 -4.44406 0.00291674 
970 1 0.779377 70.4262 3.51932 -4.45043 0.000742843 
162 1 0.779377 70.4262 0.001175 -4.45043 0.000742843 
973 1 6.32902 70.8496 3.51932 -4.4521 0.00172845 
165 1 6.32902 70.8496 0.001175 -4.4521 0.00172845 
975 1 4.62132 71.2853 5.2784 -4.45 0.000441837 
167 1 4.62132 71.2853 1.76025 -4.45 0.000441837 
977 1 2.91078 71.717 3.51932 -4.44894 0.000505561 
169 1 2.91078 71.717 0.001175 -4.44894 0.000505561 
980 1 1.20489 72.141 5.2784 -4.44879 0.000353091 
172 1 1.20489 72.141 1.76025 -4.44879 0.000353091 
1185 1 6.75308 72.5639 5.2784 -4.44994 0.000116199 
377 1 6.75308 72.5639 1.76025 -4.44993 0.000116199 
974 1 5.04813 72.9908 3.51932 -4.45089 0.000240076 
166 1 5.04813 72.9908 0.001175 -4.45089 0.000240076 
979 1 3.34055 73.4208 5.2784 -4.45035 4.34383e-05 
171 1 3.34055 73.4208 1.76025 -4.45035 4.34383e-05 
978 1 1.63326 73.8494 3.51932 -4.44943 9.21989e-05 
170 1 1.63326 73.8494 0.001175 -4.44943 9.21985e-05 
1186 1 7.179 74.2751 3.51932 -4.44951 4.05764e-05 
378 1 7.179 74.2751 0.001175 -4.44951 4.0576e-05 
976 1 5.47397 74.7005 5.2784 -4.45019 2.34505e-05 
168 1 5.47397 74.7005 1.76025 -4.45019 2.34505e-05 
981 1 3.76814 75.1279 3.51932 -4.45037 2.98102e-05 
173 1 3.76814 75.1279 0.001175 -4.45037 2.98098e-05 
982 1 2.06152 75.5562 5.2784 -4.45001 5.32856e-06 
174 1 2.06152 75.5562 1.76025 -4.45001 5.32851e-06 
985 1 0.355088 75.9836 3.51932 -4.44975 1.43903e-05 
177 1 0.355088 75.9836 0.001175 -4.44975 1.43899e-05 
986 1 5.9006 76.41 3.51932 -4.44987 3.9345e-06 
178 1 5.9006 76.41 0.001175 -4.44987 3.9341e-06 
989 1 4.19497 76.8366 5.2784 -4.45009 4.42454e-06 
181 1 4.19497 76.8366 1.76025 -4.45009 4.4245e-06 
988 1 2.48895 77.2639 3.51932 -4.45012 3.88101e-06 
180 1 2.48895 77.2639 0.001175 -4.45012 3.88062e-06 
994 1 0.782668 77.6915 5.2784 -4.44999 1.24485e-06 
186 1 0.782668 77.6915 1.76025 -4.44999 1.24481e-06 
987 1 6.32782 78.1186 5.2784 -4.4499 2.15294e-06 
179 1 6.32782 78.1186 1.76025 -4.4499 2.1529e-06 
990 1 4.62193 78.5454 3.51932 -4.44996 4.04e-07 
182 1 4.62193 78.5454 0.001175 -4.44996 4.03604e-07 
993 1 2.91605 78.9723 5.2784 -4.45005 1.20909e-06 
185 1 2.91605 78.9723 1.76025 -4.45004 1.20904e-06 
995 1 1.21 79.3996 3.51932 -4.45004 3.92172e-07 
187 1 1.21 79.3996 0.001175 -4.45004 3.91776e-07 
1197 1 6.75517 79.8268 3.51932 -4.44998 1.679e-07 
389 1 6.75517 79.8268 0.001175 -4.44998 1.67504e-07 
992 1 5.04912 80.2539 5.2784 -4.44996 3.62244e-07 
184 1 5.04912 80.2539 1.76025 -4.44996 3.622e-07 
991 1 3.34316 80.6809 3.51932 -4.44999 1.113e-07 
183 1 3.34316 80.6809 0.001175 -4.44999 1.10904e-07 
997 1 1.63719 81.1079 5.2784 -4.45002 2.46196e-07 
189 1 1.63719 81.1079 1.76025 -4.45001 2.46152e-07 
1200 1 7.18244 81.5351 5.2784 -4.45 5.1144e-08 
392 1 7.18244 81.5351 1.76025 -4.45 5.11e-08 
999 1 5.47638 81.9622 3.51932 -4.44998 1.7e-08 
191 1 5.47638 81.9622 0.001175 -4.44998 1.6604e-08 
1002 1 3.77036 82.3893 5.2784 -4.44997 9.1444e-08 
194 1 3.77036 82.3893 1.76025 -4.44997 9.14e-08 
1005 1 2.06436 82.8163 3.51932 -4.44999 4.2244e-08 
197 1 2.06436 82.8163 0.001175 -4.44999 4.1848e-08 
1008 1 0.358357 83.2434 5.2784 -4.45 4.4188e-08 
200 1 0.358357 83.2434 1.76025 -4.45 4.4144e-08 
1001 1 5.90362 83.6705 5.2784 -4.45 4.3144e-08 
193 1 5.90362 83.6705 1.76025 -4.45 4.31e-08 
1000 1 4.19758 84.0976 3.51932 -4.44999 3.23e-08 
192 1 4.19758 84.0976 0.001175 -4.44999 3.1904e-08 
1007 1 2.49156 84.5247 5.2784 -4.45 1.3603e-08 
199 1 2.49156 84.5247 1.76025 -4.45 1.3559e-08 
1006 1 0.785555 84.9518 3.51932 -4.45 3.362e-09 
198 1 0.785555 84.9518 0.001175 -4.45 2.966e-09 
1003 1 6.33083 85.3789 3.51932 -4.45 1.2325e-08 
195 1 6.33083 85.3789 0.001175 -4.45 1.1929e-08 
1004 1 4.62481 85.806 5.2784 -4.45 2.3075e-08 
196 1 4.62481 85.806 1.76025 -4.45 2.3031e-08 
1009 1 2.91878 86.2331 3.51932 -4.44999 2.9796e-08 
201 1 2.91878 86.2331 0.001175 -4.44999 2.94e-08 
1010 1 1.21276 86.6602 5.2784 -4.44999 3.1591e-08 
202 1 1.21276 86.6602 1.76025 -4.44999 3.1547e-08 
1222 1 14.0093 0.076768 3.51932 -4.44999 1.4326e-08 
414 1 14.0093 0.076768 0.001175 -4.44999 1.393e-08 
1012 1 12.3033 0.503843 5.2784 -4.44998 1.4862e-08 
204 1 12.3033 0.503843 1.76025 -4.44998 1.4818e-08 
1014 1 10.5973 0.930927 3.51932 -4.44998 2.0686e-08 
206 1 10.5973 0.930927 0.001175 -4.44998 2.029e-08 
1017 1 8.89126 1.35804 5.2784 -4.44999 6.818e-09 
209 1 8.89126 1.35804 1.76025 -4.44999 6.774e-09 
1223 1 14.4365 1.78515 5.2784 -4.45001 5.0065e-08 
415 1 14.4365 1.78515 1.76025 -4.45 5.0021e-08 
1011 1 12.7305 2.21223 3.51932 -4.44999 5.531e-09 
203 1 12.7305 2.21223 0.001175 -4.44999 5.135e-09 
1016 1 11.0245 2.63928 5.2784 -4.44998 3.4231e-08 
208 1 11.0245 2.63928 1.76025 -4.44998 3.4187e-08 
1015 1 9.3185 3.06635 3.51932 -4.44998 4.5929e-08 
207 1 9.3185 3.06635 0.001175 -4.44998 4.5533e-08 
1022 1 7.61245 3.4935 5.2784 -4.45001 4.7544e-08 
214 1 7.61245 3.4935 1.76025 -4.45001 4.75e-08 
1013 1 13.1577 3.92065 5.2784 -4.45002 1.27744e-07 
205 1 13.1577 3.92065 1.76025 -4.45001 1.277e-07 
1018 1 11.4517 4.3477 3.51932 -4.44999 6.33e-08 
210 1 11.4517 4.3477 0.001175 -4.44999 6.2904e-08 
1019 1 9.74576 4.77467 5.2784 -4.44995 3.59544e-07 
211 1 9.74576 4.77467 1.76025 -4.44995 3.595e-07 
1023 1 8.03971 5.20175 3.51932 -4.44998 1.949e-07 
215 1 8.03971 5.20175 0.001175 -4.44998 1.94504e-07 
1024 1 13.5849 5.629 3.51932 -4.45004 3.768e-07 
216 1 13.5849 5.629 0.001175 -4.45004 3.76404e-07 
1026 1 11.8788 6.05622 5.2784 -4.45005 8.90144e-07 
218 1 11.8788 6.05622 1.76025 -4.45005 8.901e-07 
1025 1 10.1729 6.48315 3.51932 -4.44995 3.667e-07 
217 1 10.1729 6.48315 0.001175 -4.44995 3.66304e-07 
1032 1 8.46706 6.90995 5.2784 -4.4499 2.32794e-06 
224 1 8.46706 6.90995 1.76025 -4.4499 2.3279e-06 
1236 1 14.0122 7.33709 5.2784 -4.44998 1.02364e-06 
428 1 14.0122 7.33709 1.76025 -4.44998 1.0236e-06 
1027 1 12.3059 7.76463 3.51932 -4.45013 3.9493e-06 
219 1 12.3059 7.76463 0.001175 -4.45013 3.9489e-06 
1030 1 10.5999 8.19195 5.2784 -4.45009 4.57364e-06 
222 1 10.5999 8.19195 1.76025 -4.45009 4.5736e-06 
1033 1 8.89428 8.61852 3.51932 -4.44987 4.0635e-06 
225 1 8.89428 8.61852 0.001175 -4.44987 4.0631e-06 
1234 1 14.4398 9.04493 3.51932 -4.44976 1.4464e-05 
426 1 14.4398 9.04493 0.001175 -4.44976 1.44636e-05 
1029 1 12.7334 9.47236 5.2784 -4.45002 5.08214e-06 
221 1 12.7334 9.47236 1.76025 -4.45002 5.0821e-06 
1028 1 11.0267 9.90069 3.51932 -4.45037 3.22508e-05 
220 1 11.0267 9.90069 0.001175 -4.45037 3.22504e-05 
1035 1 9.32092 10.328 5.2784 -4.45018 2.18824e-05 
227 1 9.32092 10.328 1.76025 -4.45018 2.18824e-05 
1034 1 7.61588 10.7535 3.51932 -4.44952 3.97174e-05 
226 1 7.61588 10.7535 0.001175 -4.44952 3.9717e-05 
1037 1 13.1616 11.1792 3.51932 -4.44943 9.05946e-05 
229 1 13.1616 11.1792 0.001175 -4.44943 9.05942e-05 
1040 1 11.4543 11.6077 5.2784 -4.45034 4.35533e-05 
232 1 11.4543 11.6077 1.76025 -4.45034 4.35533e-05 
1042 1 9.74675 12.0378 3.51932 -4.45089 0.000245128 
234 1 9.74675 12.0378 0.001175 -4.45089 0.000245127 
1045 1 8.04181 12.4647 5.2784 -4.44993 0.000117433 
237 1 8.04181 12.4647 1.76025 -4.44993 0.000117433 
1039 1 13.59 12.8875 5.2784 -4.44879 0.00035891 
231 1 13.59 12.8875 1.76025 -4.44879 0.00035891 
1038 1 11.8841 13.3115 3.51932 -4.44895 0.000510153 
230 1 11.8841 13.3115 0.001175 -4.44895 0.000510153 
1044 1 10.1736 13.7433 5.2784 -4.45001 0.000436027 
236 1 10.1736 13.7433 1.76025 -4.45001 0.000436027 
1043 1 8.46586 14.179 3.51932 -4.4521 0.00174103 
235 1 8.46586 14.179 0.001175 -4.4521 0.00174103 
1250 1 14.0155 14.6023 3.51932 -4.45043 0.00073112 
442 1 14.0155 14.6023 0.001175 -4.45043 0.00073112 
1041 1 12.3125 15.0162 5.2784 -4.44407 0.00290386 
233 1 12.3125 15.0162 1.76025 -4.44407 0.00290386 
1046 1 10.6082 15.4406 3.51932 -4.44424 0.00331746 
238 1 10.6082 15.4406 0.001175 -4.44424 0.00331746 
1047 1 8.89483 15.8859 5.2784 -4.4549 0.00649152 
239 1 8.89483 15.8859 1.76025 -4.4549 0.00649152 
1251 1 14.4296 16.3259 5.2784 -4.45645 0.0187813 
443 1 14.4296 16.3259 1.76025 -4.45645 0.0187813 
1050 1 12.7323 16.7327 3.51932 -4.42653 0.0262984 
242 1 12.7323 16.7327 0.001175 -4.42653 0.0262984 
1054 1 11.0541 17.1526 5.2784 -4.44048 0.0312414 
246 1 11.0541 17.1526 1.76025 -4.44048 0.0312414 
1053 1 9.34934 17.5635 3.51932 -4.45184 0.0434645 
245 1 9.34934 17.5635 0.001175 -4.45184 0.0434645 
1059 1 7.57213 18.0096 5.2784 -4.36354 0.493188 
251 1 7.57213 18.0096 1.76025 -4.36354 0.493188 
1052 1 13.1395 18.5338 5.2784 -4.30776 0.581487 
244 1 13.1395 18.5338 1.76025 -4.30776 0.581487 
1055 1 11.5413 18.8909 3.51932 -4.35483 0.581854 
247 1 11.5413 18.8909 0.001175 -4.35483 0.581854 
1058 1 9.74735 19.226 5.2784 -4.33858 2.84747 
250 1 9.74735 19.226 1.76025 -4.33857 2.84747 
1060 1 7.99748 19.6058 3.51932 -4.1152 8.59052 
252 1 7.99748 19.6058 0.001175 -4.1152 8.59053 
1056 1 10.1235 20.7617 3.51932 -4.07022 7.50963 
248 1 10.1235 20.7617 0.001175 -4.07022 7.50963 
1057 1 11.8891 20.7617 5.2784 -4.40579 3.51956 
249 1 11.8891 20.7617 1.76025 -4.40579 3.51956 
1051 1 13.7024 20.7617 3.51932 -4.28785 8.16375 
243 1 13.7024 20.7617 0.001175 -4.28785 8.16375 
1061 1 7.99748 21.9175 3.51932 -4.1152 8.59019 
253 1 7.99748 21.9175 0.001175 -4.1152 8.5902 
1062 1 9.74735 22.2973 5.2784 -4.33854 2.84744 
254 1 9.74735 22.2973 1.76025 -4.33853 2.84744 
1068 1 11.5413 22.6325 3.51932 -4.35482 0.581941 
260 1 11.5413 22.6325 0.001175 -4.35482 0.581941 
1065 1 13.1395 22.9895 5.2784 -4.30778 0.581379 
257 1 13.1395 22.9895 1.76025 -4.30778 0.581379 
864 1 7.57213 23.5137 5.2784 -4.36356 0.492932 
56 1 7.57213 23.5137 1.76025 -4.36356 0.492932 
1069 1 9.34934 23.9598 3.51932 -4.45186 0.0434549 
261 1 9.34934 23.9598 0.001175 -4.45186 0.0434549 
1064 1 11.0541 24.3707 5.2784 -4.44048 0.0312095 
256 1 11.0541 24.3707 1.76025 -4.44048 0.0312095 
1072 1 12.7323 24.7906 3.51932 -4.42653 0.0262929 
264 1 12.7323 24.7906 0.001175 -4.42652 0.0262929 
1067 1 14.4296 25.1974 5.2784 -4.45645 0.0187825 
259 1 14.4296 25.1974 1.76025 -4.45645 0.0187825 
1063 1 8.89482 25.6375 5.2784 -4.45491 0.00646203 
255 1 8.89482 25.6375 1.76025 -4.45491 0.00646203 
1070 1 10.6082 26.0827 3.51932 -4.44425 0.00330339 
262 1 10.6082 26.0827 0.001175 -4.44424 0.00330339 
1066 1 12.3125 26.5071 5.2784 -4.44407 0.00290386 
258 1 12.3125 26.5071 1.76025 -4.44407 0.00290386 
1073 1 14.0155 26.921 3.51932 -4.45043 0.00073635 
265 1 14.0155 26.921 0.001175 -4.45043 0.00073635 
1081 1 8.46586 27.3444 3.51932 -4.4521 0.00171821 
273 1 8.46586 27.3444 0.001175 -4.4521 0.00171821 
1075 1 10.1736 27.78 5.2784 -4.45 0.000433059 
267 1 10.1736 27.78 1.76025 -4.45 0.000433059 
1083 1 11.8841 28.2118 3.51932 -4.44895 0.000510153 
275 1 11.8841 28.2118 0.001175 -4.44895 0.000510153 
1078 1 13.59 28.6358 5.2784 -4.44878 0.00035658 
270 1 13.59 28.6358 1.76025 -4.44878 0.00035658 
1074 1 8.04181 29.0586 5.2784 -4.44993 0.000116153 
266 1 8.04181 29.0586 1.76025 -4.44993 0.000116153 
1082 1 9.74675 29.4855 3.51932 -4.45089 0.000244359 
274 1 9.74675 29.4855 0.001175 -4.45089 0.000244358 
1077 1 11.4543 29.9156 5.2784 -4.45034 4.33512e-05 
269 1 11.4543 29.9156 1.76025 -4.45033 4.33512e-05 
1084 1 13.1616 30.3441 3.51932 -4.44944 9.05104e-05 
276 1 13.1616 30.3441 0.001175 -4.44944 9.051e-05 
884 1 7.61588 30.7698 3.51932 -4.44953 3.90882e-05 
76 1 7.61588 30.7698 0.001175 -4.44953 3.90878e-05 
1076 1 9.32091 31.1953 5.2784 -4.45019 2.1956e-05 
268 1 9.32091 31.1953 1.76025 -4.45018 2.1956e-05 
1085 1 11.0267 31.6226 3.51932 -4.45037 3.32395e-05 
277 1 11.0267 31.6226 0.001175 -4.45037 3.32391e-05 
1079 1 12.7334 32.051 5.2784 -4.45002 5.30014e-06 
271 1 12.7334 32.051 1.76025 -4.45002 5.3001e-06 
1086 1 14.4398 32.4784 3.51932 -4.44976 1.47504e-05 
278 1 14.4398 32.4784 0.001175 -4.44976 1.475e-05 
1093 1 8.89428 32.9048 3.51932 -4.44987 4.1798e-06 
285 1 8.89428 32.9048 0.001175 -4.44987 4.1794e-06 
1088 1 10.5999 33.3314 5.2784 -4.4501 4.51264e-06 
280 1 10.5999 33.3314 1.76025 -4.4501 4.5126e-06 
1095 1 12.3059 33.7587 3.51932 -4.45012 4.1004e-06 
287 1 12.3059 33.7587 0.001175 -4.45012 4.1e-06 
1091 1 14.0122 34.1862 5.2784 -4.44998 9.10144e-07 
283 1 14.0122 34.1862 1.76025 -4.44998 9.101e-07 
1087 1 8.46706 34.6134 5.2784 -4.4499 2.52044e-06 
279 1 8.46706 34.6134 1.76025 -4.4499 2.5204e-06 
1096 1 10.1729 35.0402 3.51932 -4.44994 4.653e-07 
288 1 10.1729 35.0402 0.001175 -4.44994 4.64904e-07 
1090 1 11.8788 35.4671 5.2784 -4.45005 7.79744e-07 
282 1 11.8788 35.4671 1.76025 -4.45005 7.797e-07 
1098 1 13.5849 35.8943 3.51932 -4.45004 4.704e-07 
290 1 13.5849 35.8943 0.001175 -4.45004 4.70004e-07 
1094 1 8.03971 36.3216 3.51932 -4.44997 3.051e-07 
286 1 8.03971 36.3216 0.001175 -4.44997 3.04704e-07 
1089 1 9.74576 36.7486 5.2784 -4.44995 2.63144e-07 
281 1 9.74576 36.7486 1.76025 -4.44995 2.631e-07 
1097 1 11.4517 37.1756 3.51932 -4.44933 8.76e-08 
289 1 11.4517 37.1756 0.001175 -4.44933 8.7204e-08 
1092 1 13.1577 37.6027 5.2784 -4.44869 7.0144e-08 
284 1 13.1577 37.6027 1.76025 -4.44868 7.01e-08 
891 1 7.61244 38.0298 5.2784 -4.44935 1.32144e-07 
83 1 7.61244 38.0298 1.76025 -4.44935 1.321e-07 
1106 1 9.3185 38.457 3.51932 -4.45078 1.534e-07 
298 1 9.3185 38.457 0.001175 -4.45078 1.53004e-07 
1101 1 11.0245 38.884 5.2784 -4.45417 3.5344e-08 
293 1 11.0245 38.884 1.76025 -4.45417 3.53e-08 
1109 1 12.7305 39.3111 3.51932 -4.44759 1.04e-08 
301 1 12.7305 39.3111 0.001175 -4.44759 1.0004e-08 
1104 1 14.4365 39.7382 5.2784 -4.45351 7.0144e-08 
296 1 14.4365 39.7382 1.76025 -4.45351 7.01e-08 