ITEM: TIMESTEP
0
ITEM: NUMBER OF ATOMS
8
ITEM: BOX BOUNDS pp pp pp
9.1828983923209814e-03 2.9005728101607680e+01
4.8139121077631748e-02 9.3530850878922365e+01
1.4698011972969960e-03 7.0356791988027032e+00
ITEM: ATOMS id type x y z c_csym c_PE 
1 2 4.62785 49.2005 1.76077 0 -0.127508 
2 2 4.62785 49.2005 5.27788 0 -0.127508 
3 2 11.877 49.2005 0.00221662 0 -0.127508 
4 2 11.877 49.2005 3.51932 0 -0.127508 
5 2 19.1261 49.2005 1.76077 0 -0.127508 
6 2 19.1261 49.2005 5.27788 0 -0.127508 
7 2 26.3753 49.2005 0.00221662 0 -0.127508 
8 2 26.3753 49.2005 3.51932 0 -0.127508 
