ITEM: TIMESTEP
88
ITEM: NUMBER OF ATOMS
404
ITEM: BOX BOUNDS pp pp pp
4.8760581309305459e-03 1.4507455744043270e+01
3.4254324559386956e-02 8.7044736488485611e+01
4.2546008738116433e-04 3.5185745399126187e+00
ITEM: ATOMS id type x y z c_csym c_peratom 
1 1 5.05268 0.50399 0.0011753 2.74408e-08 -4.44999 
2 1 5.90653 3.92077 0.00117502 6.18685 -4.45002 
3 1 5.47959 2.21237 1.76025 6.18719 -4.44999 
4 1 1.64052 1.35816 0.00117528 6.18718 -4.45 
5 1 3.3466 0.931061 1.76025 6.18735 -4.44999 
6 1 3.77353 2.63942 0.00117513 6.18698 -4.44998 
7 1 2.4945 4.77478 0.001175 12.3735 -4.44996 
8 1 4.20049 4.34783 1.76025 6.64605e-08 -4.44999 
9 1 2.06743 3.06648 1.76025 6.18686 -4.44999 
13 1 0.788426 5.20186 1.76025 6.1866 -4.44998 
12 1 0.361325 3.49362 0.00117527 6.18684 -4.45001 
212 1 6.75877 0.0769347 1.76025 6.18733 -4.44999 
213 1 7.18565 1.78527 0.00117517 6.18703 -4.45 
14 1 6.33356 5.6291 1.76025 3.64007e-07 -4.45004 
15 1 4.62747 6.05633 0.00117503 8.53044e-07 -4.45005 
16 1 3.34832 8.19204 0.00117499 4.5032e-06 -4.4501 
17 1 5.05442 7.76472 1.76025 3.36563e-06 -4.45013 
18 1 2.92152 6.48326 1.76025 3.71292e-07 -4.44997 
19 1 5.48158 9.47243 0.00117483 5.27685e-06 -4.45002 
20 1 3.77492 9.90076 1.76025 3.00616e-05 -4.45037 
21 1 1.21558 6.91005 0.00117504 2.16017e-06 -4.4499 
26 1 0.363817 10.7535 1.76025 3.86914e-05 -4.44951 
23 1 1.6426 8.61862 1.76025 3.88102e-06 -4.44988 
25 1 2.06895 10.3281 0.00117485 2.23981e-05 -4.45019 
223 1 6.76073 7.33718 0.00117495 9.61846e-07 -4.44998 
228 1 7.18807 9.04502 1.76025 1.43025e-05 -4.44976 
27 1 4.20206 11.6077 0.00117484 4.29451e-05 -4.45034 
28 1 5.90947 11.1792 1.76025 8.99181e-05 -4.44943 
29 1 6.33732 12.8874 0.00117466 0.000348789 -4.44879 
30 1 5.05907 15.0159 0.00117476 0.00287412 -4.44408 
31 1 4.63128 13.3114 1.76025 0.000494735 -4.44896 
32 1 0.789315 12.4646 0.00117478 0.000112663 -4.44991 
33 1 2.49439 12.0377 1.76025 0.000238326 -4.45087 
34 1 2.92065 13.7432 0.00117477 0.00043123 -4.44999 
35 1 1.64121 15.8855 0.00117464 0.00633583 -4.45488 
36 1 3.35455 15.4404 1.76025 0.00321352 -4.4443 
37 1 1.21284 14.1787 1.76025 0.00168967 -4.45204 
240 1 6.76234 14.6019 1.76025 0.000725748 -4.45039 
241 1 7.17602 16.3253 0.00117457 0.0183715 -4.45647 
40 1 5.88542 18.5327 0.00117464 0.601637 -4.30483 
41 1 5.47863 16.732 1.76025 0.0262471 -4.42648 
42 1 6.4491 20.7729 1.76025 8.16479 -4.28767 
43 1 3.7999 17.1522 0.00117467 0.0308922 -4.44067 
44 1 2.49292 19.2262 0.0011742 2.85392 -4.33833 
45 1 4.28718 18.8901 1.76025 0.594959 -4.35345 
46 1 2.09495 17.5638 1.76025 0.0426334 -4.45216 
47 1 4.63607 20.7609 0.00117454 3.52003 -4.4057 
48 1 2.87046 20.7614 1.76025 7.51051 -4.07046 
49 1 0.318306 18.0095 0.00117455 0.506325 -4.3624 
50 1 0.742042 19.6071 1.76025 8.62027 -4.11528 
51 1 0.746533 21.9191 1.76025 8.56195 -4.11524 
52 1 2.09774 23.9606 1.76025 0.0441145 -4.45165 
53 1 4.28929 22.6321 1.76025 0.568743 -4.35627 
54 1 3.3563 26.0832 1.76025 0.00343071 -4.44416 
55 1 5.48033 24.7906 1.76025 0.0264132 -4.42662 
63 1 5.06047 26.5074 0.00117497 0.00296931 -4.44403 
57 1 6.76337 26.9211 1.76025 0.000754056 -4.45045 
58 1 2.49579 22.2978 0.00117409 2.84156 -4.33882 
59 1 3.80245 24.3711 0.00117492 0.0315912 -4.44035 
60 1 1.64288 25.6379 0.00117496 0.00649167 -4.4549 
61 1 5.88752 22.9887 0.0011748 0.562289 -4.31053 
62 1 7.17752 25.1975 0.00117488 0.0191726 -4.45644 
263 1 0.32008 23.5139 0.00117483 0.479618 -4.36463 
64 1 1.21367 27.3445 1.76025 0.00177076 -4.45212 
65 1 2.49438 29.4856 1.76025 0.000251151 -4.4509 
66 1 4.63192 28.212 1.76025 0.00052724 -4.4489 
67 1 3.77422 31.6225 1.76025 3.24287e-05 -4.45037 
68 1 5.90921 30.3442 1.76025 9.4322e-05 -4.44942 
69 1 7.18727 32.4783 1.76025 1.51711e-05 -4.44976 
70 1 2.92141 27.7803 0.00117514 0.000441328 -4.44998 
71 1 0.789472 29.0587 0.00117515 0.000118464 -4.44995 
72 1 2.06844 31.1952 0.00117517 2.26479e-05 -4.4502 
73 1 6.33775 28.6359 0.00117504 0.000357349 -4.44877 
74 1 4.20194 29.9156 0.00117514 4.49412e-05 -4.45034 
75 1 5.48086 32.0508 0.00117534 5.59391e-06 -4.45001 
272 1 0.363452 30.7698 1.76025 4.0042e-05 -4.44952 
77 1 1.64176 32.9046 1.76025 4.13616e-06 -4.44987 
78 1 0.787215 36.3211 1.76025 1.988e-07 -4.44997 
79 1 2.92044 35.0398 1.76025 4.74302e-07 -4.44995 
80 1 5.05338 33.7585 1.76025 4.10041e-06 -4.45012 
81 1 4.19924 37.1751 1.76025 1.4001e-07 -4.44999 
82 1 6.33238 35.8939 1.76025 4.44622e-07 -4.45003 
89 1 5.9052 37.6022 0.00117529 1.94531e-07 -4.45001 
84 1 1.21455 34.6131 0.00117535 2.23499e-06 -4.44989 
85 1 3.34739 33.3311 0.00117522 4.7099e-06 -4.45009 
86 1 4.62635 35.4667 0.00117532 8.27099e-07 -4.45004 
87 1 2.49325 36.7482 0.00117533 2.73047e-07 -4.44995 
88 1 6.7597 34.186 0.00117535 1.00575e-06 -4.44998 
291 1 0.359919 38.0293 0.00117534 6.92834e-08 -4.45001 
90 1 2.06596 38.4564 1.76025 8.79182e-08 -4.44999 
91 1 1.21118 41.8731 1.76025 2.4243e-08 -4.45 
92 1 3.3446 40.5918 1.76025 6.76758e-08 -4.44999 
93 1 5.47793 39.3105 1.76025 7.63609e-08 -4.45 
94 1 4.62312 42.7272 1.76025 2.96005e-08 -4.44999 
95 1 6.75649 41.446 1.76025 2.28797e-08 -4.45 
96 1 3.77195 38.8835 0.00117527 5.70289e-08 -4.44999 
97 1 1.63857 40.1647 0.00117544 1.58708e-08 -4.45 
98 1 2.91713 42.3002 0.00117535 1.01098e-08 -4.44999 
99 1 7.18387 39.7376 0.00117527 3.8015e-08 -4.45 
100 1 5.05054 41.0189 0.00117527 1.80658e-08 -4.44999 
101 1 6.32906 43.1543 0.00117536 1.71511e-08 -4.44999 
102 1 2.48968 44.0085 1.76025 6.57356e-09 -4.45 
103 1 1.6348 47.4254 1.76025 1.62447e-07 -4.45002 
104 1 3.76814 46.144 1.76025 4.58209e-08 -4.44998 
105 1 5.90156 44.8627 1.76025 6.18674 -4.45 
106 1 5.04662 48.2794 1.76025 3.57827e-07 -4.44996 
107 1 7.18012 46.9982 1.76025 6.18677 -4.45001 
108 1 0.783714 43.5814 0.00117544 6.18692 -4.45 
109 1 2.06222 45.717 0.00117525 6.18693 -4.45 
110 1 4.19565 44.4356 0.00117529 1.88283e-08 -4.44999 
111 1 5.47413 46.5711 0.00117518 5.71566e-08 -4.44998 
112 1 3.34073 47.8525 0.00117522 9.39725e-08 -4.44999 
114 1 6.75262 48.7065 0.00117518 2.72759e-07 -4.44998 
309 1 0.35626 45.2899 1.76025 2.33896e-08 -4.45001 
115 1 0.779945 50.8418 1.76025 1.08127e-06 -4.44998 
116 1 2.91342 49.561 1.76025 8.65153e-07 -4.45004 
117 1 2.05875 52.977 1.76025 5.58819e-06 -4.45 
118 1 4.1922 51.6967 1.76025 4.68132e-06 -4.4501 
119 1 6.32512 50.4147 1.76025 2.21096e-06 -4.4499 
120 1 5.47129 53.8328 1.76025 2.48069e-05 -4.45021 
127 1 7.17637 54.2583 0.001175 3.89472e-05 -4.44951 
122 1 1.20741 49.1337 0.0011754 3.07581e-07 -4.45004 
123 1 4.61926 49.988 0.00117531 4.6408e-07 -4.44996 
124 1 2.48617 51.2694 0.00117532 3.38236e-06 -4.45012 
125 1 3.7654 53.4054 0.00117519 3.06126e-05 -4.45037 
126 1 5.89785 52.1233 0.00117507 4.06619e-06 -4.44987 
328 1 0.352332 52.5497 0.00117515 1.51413e-05 -4.44975 
128 1 1.20252 56.3923 1.76025 0.000357519 -4.44877 
129 1 3.33792 55.1123 1.76025 4.29301e-05 -4.45032 
130 1 2.48042 58.521 1.76025 0.00298399 -4.44401 
131 1 4.61901 57.2478 1.76025 0.000436408 -4.44995 
132 1 6.75071 55.9695 1.76025 0.000127166 -4.44997 
133 1 5.89819 59.3902 1.76025 0.00655381 -4.45486 
134 1 1.6306 54.6839 0.00117507 9.72184e-05 -4.4494 
135 1 2.9084 56.8161 0.00117498 0.00054794 -4.44885 
136 1 0.777538 58.1074 0.00117494 0.000763176 -4.45052 
137 1 5.04562 55.5425 0.00117511 0.000247601 -4.45091 
138 1 6.327 57.6838 0.00117489 0.00180894 -4.45216 
139 1 4.1845 58.9448 0.00117489 0.00362748 -4.44407 
336 1 0.363917 59.8312 1.76025 0.0196739 -4.45634 
141 1 1.65466 62.0411 1.76025 0.534977 -4.31483 
142 1 3.73876 60.6575 1.76025 0.0319672 -4.44012 
143 1 2.90818 64.2694 1.76025 3.52707 -4.40541 
144 1 5.04575 62.7304 1.76025 2.83063 -4.33913 
145 1 7.22187 61.5143 1.76025 0.460208 -4.36625 
146 1 6.79397 63.1076 0.00117444 8.51726 -4.11528 
147 1 2.06133 60.2385 0.00117478 0.0264949 -4.42678 
148 1 1.09524 64.239 0.00117483 8.18441 -4.28697 
149 1 5.44341 61.067 0.00117441 0.0450374 -4.45138 
150 1 3.25301 62.3976 0.0011745 0.548982 -4.35864 
151 1 4.67405 64.268 0.00117339 7.5121 -4.07085 
152 1 3.25979 66.1406 0.00117458 0.616508 -4.351 
153 1 5.05456 65.8026 1.76025 2.86607 -4.33808 
154 1 5.45305 67.465 0.00117445 0.0413038 -4.45255 
155 1 4.19335 69.5891 0.0011749 0.00302394 -4.44443 
156 1 5.9065 69.1441 1.76025 0.00621879 -4.45487 
157 1 3.74798 67.8777 1.76025 0.0303124 -4.44092 
164 1 0.371291 68.7049 1.76025 0.0177025 -4.4565 
159 1 1.66155 66.4986 1.76025 0.634725 -4.3004 
163 1 2.48865 70.0141 1.76025 0.00283991 -4.44414 
161 1 2.06865 68.2983 0.00117481 0.026041 -4.4264 
162 1 0.785224 70.4283 0.00117497 0.000701091 -4.45033 
360 1 6.80648 65.4196 0.00117461 8.6666 -4.11568 
364 1 7.22853 67.02 1.76025 0.527752 -4.36096 
165 1 6.33481 70.8514 0.00117506 0.00163095 -4.45199 
166 1 5.05329 72.9922 0.00117513 0.000232201 -4.45086 
167 1 4.62716 71.2867 1.76025 0.000438765 -4.45001 
168 1 5.47845 74.7018 1.76025 1.9617e-05 -4.45017 
169 1 2.91656 71.7183 0.00117512 0.000458947 -4.44901 
170 1 1.63816 73.8506 0.00117507 8.40889e-05 -4.44945 
171 1 3.34563 73.422 1.76025 4.27774e-05 -4.45035 
172 1 1.2104 72.1426 1.76025 0.000345947 -4.4488 
173 1 3.77247 75.129 0.00117522 3.02695e-05 -4.45035 
174 1 2.06569 75.5572 1.76025 5.13303e-06 -4.45002 
177 1 0.359073 75.9846 0.00117537 1.37677e-05 -4.44976 
377 1 6.75834 72.5655 1.76025 0.000104996 -4.44989 
378 1 7.18368 74.2763 0.00117514 3.92268e-05 -4.44951 
178 1 5.90438 76.411 0.00117523 3.94701e-06 -4.44986 
179 1 6.33087 78.1193 1.76025 2.30345e-06 -4.4499 
180 1 2.49235 77.2647 0.00117537 3.75437e-06 -4.45011 
181 1 4.19854 76.8375 1.76025 3.95861e-06 -4.45008 
182 1 4.6248 78.5461 0.00117531 6.17842e-07 -4.44995 
183 1 3.34531 80.6813 0.00117538 1.61156e-07 -4.44998 
184 1 5.05141 80.2544 1.76025 3.42131e-07 -4.44995 
185 1 2.91875 78.973 1.76025 8.35656e-07 -4.45003 
186 1 0.785911 77.6922 1.76025 8.19744e-07 -4.44998 
187 1 1.21257 79.4001 0.00117544 4.16586e-07 -4.45003 
189 1 1.6392 81.1083 1.76025 2.9906e-07 -4.45001 
389 1 6.7576 79.8273 0.00117538 2.18379e-07 -4.44998 
392 1 7.18433 81.5354 1.76025 1.21823e-07 -4.45001 
191 1 5.4782 81.9625 0.00117537 6.5825e-08 -4.44999 
192 1 4.19891 84.0979 0.00117536 3.26191e-08 -4.44999 
193 1 5.90502 83.6708 1.76025 2.15342e-08 -4.45 
194 1 3.77206 82.3896 1.76025 7.07355e-08 -4.44999 
195 1 6.33191 85.3791 0.00117534 1.88671e-08 -4.44999 
196 1 4.62581 85.8062 1.76025 7.61738e-09 -4.44999 
197 1 2.06597 82.8166 0.00117538 3.92326e-08 -4.45 
198 1 0.786697 84.952 0.0011754 2.20104e-08 -4.45 
199 1 2.49282 84.525 1.76025 2.0419e-08 -4.44999 
200 1 0.359888 83.2437 1.76025 3.96804e-08 -4.45001 
201 1 2.91969 86.2332 0.00117529 1.14708e-08 -4.44999 
202 1 1.21357 86.6603 1.76025 3.08648e-08 -4.45 
203 1 12.7309 2.21237 0.00117526 2.29656e-08 -4.44999 
204 1 12.304 0.50399 1.76025 6.18728 -4.44999 
205 1 13.1578 3.92077 1.76025 6.18685 -4.45002 
206 1 10.5979 0.93106 0.0011753 6.18736 -4.44999 
207 1 9.31872 3.06648 0.0011751 6.18686 -4.44999 
208 1 11.0248 2.63942 1.76025 3.93957e-08 -4.44998 
209 1 8.89181 1.35816 1.76025 6.18718 -4.45 
210 1 11.4518 4.34783 0.00117501 6.18689 -4.44999 
211 1 9.74579 4.77478 1.76025 3.15173e-07 -4.44996 
215 1 8.03972 5.20185 0.00117496 12.3732 -4.44998 
214 1 7.61261 3.49362 1.76025 6.18684 -4.45001 
10 1 14.0101 0.0769349 0.0011755 6.18733 -4.44999 
11 1 14.4369 1.78527 1.76025 6.18703 -4.45 
216 1 13.5848 5.6291 0.00117518 3.64364e-07 -4.45004 
217 1 10.1728 6.48326 0.00117498 3.70838e-07 -4.44997 
218 1 11.8788 6.05633 1.76025 8.53444e-07 -4.45005 
219 1 12.3057 7.76472 0.00117502 3.36737e-06 -4.45013 
220 1 11.0262 9.90076 0.00117489 3.0058e-05 -4.45037 
221 1 12.7329 9.47243 1.76025 5.278e-06 -4.45002 
222 1 10.5996 8.19204 1.76025 4.50071e-06 -4.4501 
227 1 9.32024 10.3281 1.76025 2.23994e-05 -4.45019 
224 1 8.46687 6.91005 1.76025 2.16344e-06 -4.4499 
225 1 8.89389 8.61862 0.00117479 3.88017e-06 -4.44988 
226 1 7.61511 10.7535 0.00117467 3.86965e-05 -4.44951 
22 1 14.4394 9.04502 0.00117487 1.42999e-05 -4.44976 
24 1 14.012 7.33718 1.76025 9.62399e-07 -4.44998 
229 1 13.1608 11.1792 0.0011748 8.99244e-05 -4.44943 
230 1 11.8826 13.3114 0.00117472 0.00049474 -4.44896 
231 1 13.5886 12.8874 1.76025 0.000348743 -4.44879 
232 1 11.4533 11.6077 1.76025 4.29446e-05 -4.45034 
233 1 12.3104 15.0159 1.76025 0.00287409 -4.44408 
234 1 9.74567 12.0377 0.00117482 0.000238321 -4.45087 
235 1 8.46413 14.1787 0.0011747 0.00168975 -4.45204 
236 1 10.1719 13.7432 1.76025 0.000431251 -4.44999 
237 1 8.04061 12.4646 1.76025 0.000112664 -4.44991 
238 1 10.6058 15.4404 0.00117467 0.00321347 -4.4443 
239 1 8.8925 15.8855 1.76025 0.00633558 -4.45488 
38 1 14.0136 14.6019 0.00117479 0.000725733 -4.45039 
39 1 14.4273 16.3253 1.76025 0.0183719 -4.45647 
242 1 12.7299 16.732 0.00117476 0.0262471 -4.42648 
243 1 13.7004 20.7729 0.00117483 8.16481 -4.28767 
244 1 13.1367 18.5327 1.76025 0.601644 -4.30483 
245 1 9.34624 17.5638 0.00117445 0.0426326 -4.45216 
246 1 11.0512 17.1522 1.76025 0.030892 -4.44067 
247 1 11.5385 18.8901 0.00117461 0.59496 -4.35345 
248 1 10.1218 20.7614 0.00117383 7.51051 -4.07047 
249 1 11.8874 20.7609 1.76025 3.52005 -4.4057 
250 1 9.74421 19.2262 1.76025 2.85392 -4.33833 
251 1 7.5696 18.0095 1.76025 0.506318 -4.3624 
252 1 7.99333 19.6071 0.00117454 8.62027 -4.11528 
253 1 7.99782 21.9191 0.00117464 8.56197 -4.11524 
254 1 9.74708 22.2978 1.76025 2.84156 -4.33882 
255 1 8.89417 25.6379 1.76025 0.0064913 -4.4549 
256 1 11.0537 24.3711 1.76025 0.0315914 -4.44035 
257 1 13.1388 22.9887 1.76025 0.562288 -4.31053 
258 1 12.3118 26.5074 1.76025 0.00296958 -4.44403 
259 1 14.4288 25.1975 1.76025 0.0191727 -4.45644 
260 1 11.5406 22.6321 0.00117473 0.568741 -4.35626 
261 1 9.34903 23.9606 0.00117473 0.0441148 -4.45165 
262 1 10.6076 26.0832 0.00117503 0.00343081 -4.44416 
265 1 14.0147 26.9211 0.00117505 0.000754064 -4.45045 
264 1 12.7316 24.7906 0.0011749 0.0264129 -4.42662 
56 1 7.57137 23.5139 1.76025 0.479619 -4.36463 
266 1 8.04076 29.0587 1.76025 0.000118472 -4.44995 
267 1 10.1727 27.7803 1.76025 0.000441265 -4.44998 
268 1 9.31973 31.1952 1.76025 2.26541e-05 -4.4502 
269 1 11.4532 29.9156 1.76025 4.49467e-05 -4.45034 
270 1 13.589 28.6359 1.76025 0.000357492 -4.44877 
271 1 12.7322 32.0508 1.76025 5.59706e-06 -4.45001 
278 1 14.4386 32.4783 0.0011754 1.5184e-05 -4.44975 
273 1 8.46497 27.3445 0.00117511 0.00177074 -4.45212 
274 1 9.74567 29.4855 0.00117517 0.00025115 -4.4509 
275 1 11.8832 28.212 0.00117515 0.00052727 -4.4489 
276 1 13.1605 30.3442 0.00117511 9.43683e-05 -4.44942 
277 1 11.0255 31.6225 0.00117519 3.24542e-05 -4.45037 
76 1 7.61474 30.7698 0.00117512 4.00185e-05 -4.44952 
279 1 8.46584 34.6131 1.76025 2.23842e-06 -4.44989 
280 1 10.5987 33.3311 1.76025 4.71893e-06 -4.45009 
281 1 9.74454 36.7482 1.76025 2.74191e-07 -4.44995 
282 1 11.8776 35.4667 1.76025 8.28356e-07 -4.45004 
283 1 14.011 34.186 1.76025 1.00754e-06 -4.44998 
284 1 13.1565 37.6022 1.76025 1.9336e-07 -4.45001 
285 1 8.89305 32.9046 0.0011752 4.13636e-06 -4.44987 
286 1 8.03851 36.3211 0.0011753 1.99676e-07 -4.44997 
287 1 12.3047 33.7585 0.00117541 4.10766e-06 -4.45012 
288 1 10.1717 35.0398 0.00117522 4.74009e-07 -4.44995 
289 1 11.4505 37.1751 0.00117524 1.38968e-07 -4.44999 
290 1 13.5837 35.8939 0.00117535 4.45222e-07 -4.45003 
83 1 7.61121 38.0293 1.76025 6.95235e-08 -4.45001 
292 1 8.88986 40.1647 1.76025 1.58456e-08 -4.45 
293 1 11.0232 38.8835 1.76025 5.63653e-08 -4.44999 
294 1 10.1684 42.3002 1.76025 1.0283e-08 -4.44999 
295 1 12.3018 41.0189 1.76025 1.82579e-08 -4.44999 
296 1 14.4352 39.7376 1.76025 3.77372e-08 -4.45 
297 1 13.5803 43.1543 1.76025 1.72235e-08 -4.44999 
298 1 9.31725 38.4564 0.00117533 8.88256e-08 -4.44999 
299 1 10.5959 40.5918 0.00117531 6.68654e-08 -4.44999 
300 1 8.46247 41.8731 0.00117537 2.45023e-08 -4.45 
301 1 12.7292 39.3105 0.00117529 7.68705e-08 -4.45 
302 1 14.0078 41.446 0.00117533 2.2723e-08 -4.45 
303 1 11.8744 42.7272 0.00117533 2.91248e-08 -4.44999 
304 1 8.035 43.5814 1.76025 6.18692 -4.45 
305 1 9.31351 45.717 1.76025 6.18693 -4.45 
306 1 11.4469 44.4356 1.76025 1.83028e-08 -4.44999 
307 1 10.592 47.8525 1.76025 9.42972e-08 -4.44999 
308 1 12.7254 46.5711 1.76025 5.74939e-08 -4.44998 
316 1 14.4314 46.9982 0.0011753 4.52266e-08 -4.45001 
310 1 14.0039 48.7065 1.76025 2.72e-07 -4.44998 
311 1 9.74097 44.0085 0.00117531 6.54187e-09 -4.45 
312 1 8.88609 47.4254 0.0011752 1.62939e-07 -4.45002 
313 1 13.1529 44.8627 0.00117534 4.46238e-08 -4.45 
314 1 11.0194 46.144 0.00117518 4.6764e-08 -4.44998 
315 1 12.2979 48.2794 0.0011753 3.58247e-07 -4.44996 
113 1 7.60755 45.2899 0.00117523 2.32342e-08 -4.45001 
317 1 8.4587 49.1337 1.76025 3.07931e-07 -4.45004 
318 1 9.73746 51.2694 1.76025 3.37991e-06 -4.45012 
319 1 11.8705 49.988 1.76025 4.64352e-07 -4.44996 
320 1 11.0167 53.4054 1.76025 3.06047e-05 -4.45037 
321 1 13.1491 52.1233 1.76025 4.06644e-06 -4.44987 
322 1 14.4277 54.2583 1.76025 3.89599e-05 -4.44951 
323 1 8.03123 50.8418 0.00117517 1.07935e-06 -4.44998 
324 1 10.1647 49.561 0.00117533 8.63332e-07 -4.45004 
325 1 11.4435 51.6967 0.00117533 4.68142e-06 -4.4501 
326 1 9.31004 52.977 0.00117508 5.58876e-06 -4.45 
327 1 13.5764 50.4147 0.00117522 2.21047e-06 -4.4499 
329 1 12.7226 53.8328 0.00117523 2.47993e-05 -4.45021 
121 1 7.60362 52.5497 1.76025 1.51339e-05 -4.44975 
330 1 8.88189 54.6839 1.76025 9.72099e-05 -4.4494 
331 1 8.02883 58.1074 1.76025 0.000763207 -4.45052 
332 1 10.1597 56.8161 1.76025 0.000547917 -4.44885 
333 1 12.2969 55.5425 1.76025 0.000247615 -4.45091 
334 1 11.4358 58.9448 1.76025 0.00362743 -4.44407 
335 1 13.5783 57.6838 1.76025 0.00180892 -4.45216 
342 1 13.1495 59.3902 0.00117484 0.00655392 -4.45486 
337 1 10.5892 55.1123 0.00117512 4.29313e-05 -4.45032 
338 1 8.45381 56.3923 0.00117491 0.000357469 -4.44877 
339 1 9.73171 58.521 0.001175 0.00298393 -4.44401 
340 1 14.002 55.9695 0.00117498 0.000127153 -4.44997 
341 1 11.8703 57.2478 0.00117507 0.000436417 -4.44995 
140 1 7.61521 59.8312 0.00117469 0.019674 -4.45634 
343 1 9.31262 60.2385 1.76025 0.026495 -4.42678 
344 1 8.34653 64.239 1.76025 8.18438 -4.28697 
345 1 10.5043 62.3976 1.76025 0.548981 -4.35864 
346 1 12.6947 61.067 1.76025 0.0450381 -4.45138 
347 1 11.9253 64.268 1.76025 7.5121 -4.07085 
348 1 14.0453 63.1076 1.76025 8.51727 -4.11528 
349 1 8.90595 62.0411 0.00117464 0.534974 -4.31483 
350 1 10.9901 60.6575 0.0011747 0.0319673 -4.44012 
351 1 12.297 62.7304 0.00117377 2.83063 -4.33913 
352 1 10.1595 64.2694 0.00117445 3.52705 -4.40541 
353 1 14.4732 61.5143 0.00117448 0.46021 -4.36625 
354 1 12.3058 65.8026 0.00117372 2.86607 -4.33808 
355 1 10.9993 67.8777 0.00117472 0.0303125 -4.44092 
356 1 12.7043 67.465 1.76025 0.0413044 -4.45255 
357 1 10.5111 66.1406 1.76025 0.616512 -4.351 
358 1 13.1578 69.1441 0.0011748 0.00621894 -4.45487 
359 1 11.4446 69.5891 1.76025 0.00302392 -4.44443 
366 1 8.03651 70.4283 1.76025 0.000701047 -4.45033 
361 1 8.91284 66.4986 0.00117474 0.634725 -4.3004 
362 1 7.62258 68.7049 0.00117479 0.0177026 -4.4565 
363 1 9.31994 68.2983 1.76025 0.0260409 -4.4264 
365 1 9.73994 70.0141 0.00117494 0.00283989 -4.44414 
158 1 14.4798 67.02 0.00117472 0.527752 -4.36096 
160 1 14.0578 65.4196 1.76025 8.66661 -4.11568 
367 1 11.8784 71.2867 0.00117509 0.000438838 -4.45001 
368 1 13.5861 70.8514 1.76025 0.00163096 -4.45199 
369 1 12.7297 74.7018 0.00117519 1.96182e-05 -4.45017 
370 1 12.3046 72.9922 1.76025 0.000232183 -4.45086 
371 1 8.46169 72.1426 0.00117506 0.000345897 -4.4488 
372 1 10.1678 71.7183 1.76025 0.000458897 -4.44901 
373 1 10.5969 73.422 0.00117523 4.27703e-05 -4.45035 
374 1 9.31698 75.5572 0.00117528 5.13096e-06 -4.45002 
375 1 11.0238 75.129 1.76025 3.0254e-05 -4.45035 
376 1 8.88945 73.8506 1.76025 8.40715e-05 -4.44945 
379 1 7.61036 75.9846 1.76025 1.37635e-05 -4.44976 
175 1 14.0096 72.5655 0.0011751 0.000104993 -4.44989 
176 1 14.435 74.2763 1.76025 3.92485e-05 -4.44951 
380 1 13.5822 78.1193 0.00117534 2.29872e-06 -4.4499 
381 1 13.1557 76.411 1.76025 3.95083e-06 -4.44986 
382 1 11.4498 76.8375 0.00117521 3.95522e-06 -4.45008 
383 1 10.17 78.973 0.00117542 8.34595e-07 -4.45003 
384 1 11.8761 78.5461 1.76025 6.18087e-07 -4.44995 
385 1 9.74364 77.2647 1.76025 3.74867e-06 -4.45011 
386 1 12.3027 80.2544 0.00117529 3.39638e-07 -4.44995 
387 1 10.5966 80.6813 1.76025 1.62036e-07 -4.44998 
388 1 8.0372 77.6922 0.00117542 8.19174e-07 -4.44998 
391 1 8.89049 81.1083 0.00117533 2.99154e-07 -4.45001 
390 1 8.46386 79.4001 1.76025 4.15966e-07 -4.45003 
188 1 14.4356 81.5354 0.00117541 1.21894e-07 -4.45001 
190 1 14.0089 79.8273 1.76025 2.17924e-07 -4.44998 
393 1 11.0234 82.3896 0.00117539 7.1325e-08 -4.44999 
394 1 12.7295 81.9625 1.76025 6.56416e-08 -4.44999 
395 1 13.1563 83.6708 0.00117538 2.13289e-08 -4.45 
396 1 11.8771 85.8062 0.00117543 7.47005e-09 -4.44999 
397 1 13.5832 85.3791 1.76025 1.88958e-08 -4.44999 
398 1 11.4502 84.0979 1.76025 3.22491e-08 -4.44999 
399 1 7.61118 83.2437 0.00117532 3.98862e-08 -4.45001 
400 1 9.31726 82.8166 1.76025 3.93151e-08 -4.45 
401 1 9.74411 84.525 0.00117533 2.01016e-08 -4.44999 
402 1 8.46486 86.6603 0.00117528 3.08036e-08 -4.45 
403 1 10.171 86.2332 1.76025 1.15643e-08 -4.44999 
404 1 8.03799 84.952 1.76025 2.15582e-08 -4.45 
