ITEM: TIMESTEP
113
ITEM: NUMBER OF ATOMS
1616
ITEM: BOX BOUNDS pp pp pp
9.0630687282475947e-03 2.9005847931271749e+01
4.7752799125547279e-02 9.3531237200874443e+01
1.4407319773871896e-03 7.0357082680226135e+00
ITEM: ATOMS id type x y z c_csym c_PE 
1020 1 6.76035 0.0945536 5.27789 1.25697e-09 -4.44998 
212 1 6.76035 0.0945561 1.76076 4.67395e-10 -4.44998 
809 1 5.05485 0.521601 3.51932 7.80982e-10 -4.44998 
1 1 5.05485 0.5216 0.00219234 1.32167e-09 -4.44998 
813 1 3.34934 0.948657 5.27789 8.33695e-10 -4.44999 
5 1 3.34935 0.948651 1.76076 1.1704e-10 -4.44998 
812 1 1.64384 1.37571 3.51933 2.03164e-09 -4.44998 
4 1 1.64384 1.3757 0.00218962 1.36359e-09 -4.44998 
1021 1 7.18754 1.80274 3.51932 4.78949e-10 -4.44998 
213 1 7.18754 1.80275 0.00219019 8.04698e-10 -4.44998 
811 1 5.48204 2.22978 5.2779 4.7059e-09 -4.44998 
3 1 5.48204 2.22979 1.76076 5.29412e-10 -4.44998 
814 1 3.77654 2.65683 3.51933 1.83761e-09 -4.44998 
6 1 3.77653 2.65683 0.0021977 3.10542e-09 -4.44998 
817 1 2.07102 3.08389 5.27789 7.90011e-09 -4.44999 
9 1 2.07103 3.08388 1.76076 1.22812e-09 -4.44998 
820 1 0.365518 3.51094 3.51933 8.82587e-09 -4.44999 
12 1 0.365524 3.51093 0.00218547 4.16609e-09 -4.44998 
810 1 5.90922 3.93797 3.51933 7.34283e-09 -4.44998 
2 1 5.90922 3.93798 0.002195 4.69174e-09 -4.44998 
816 1 4.20373 4.36499 5.27791 3.52928e-08 -4.44997 
8 1 4.20372 4.36502 1.76076 3.81918e-09 -4.44998 
815 1 2.49822 4.79205 3.51932 1.70761e-08 -4.44998 
7 1 2.49822 4.79205 0.00221038 2.02641e-08 -4.44998 
821 1 0.792695 5.21914 5.27789 6.29708e-08 -4.45 
13 1 0.792706 5.2191 1.76076 7.64443e-09 -4.44998 
822 1 6.33638 5.6462 5.27789 6.03858e-08 -4.45 
14 1 6.3364 5.64617 1.76078 2.34031e-08 -4.44998 
823 1 4.63091 6.07317 3.51935 8.44355e-08 -4.44996 
15 1 4.63092 6.07322 0.00220539 4.49853e-08 -4.44999 
826 1 2.92544 6.50015 5.27793 2.96543e-07 -4.44994 
18 1 2.92542 6.50025 1.76076 4.4335e-08 -4.45 
829 1 1.21991 6.92726 3.5193 1.2905e-07 -4.44999 
21 1 1.21989 6.92727 0.00222451 1.33276e-07 -4.44998 
1031 1 6.76354 7.35443 3.51935 4.76621e-07 -4.45003 
223 1 6.76358 7.35434 0.00220269 4.61264e-08 -4.44998 
825 1 5.05803 7.7815 5.2779 5.42648e-07 -4.45001 
17 1 5.0581 7.78139 1.76084 2.42132e-07 -4.44998 
824 1 3.35262 8.20834 3.51943 9.14826e-07 -4.44992 
16 1 3.35263 8.20845 0.00218379 5.65002e-07 -4.44999 
831 1 1.64717 8.63521 5.27795 2.22293e-06 -4.44985 
23 1 1.64712 8.6355 1.76075 4.31939e-07 -4.45005 
1036 1 7.19079 9.06246 5.27796 7.91111e-07 -4.44998 
228 1 7.19074 9.06252 1.76075 8.34386e-07 -4.45002 
827 1 5.48515 9.48988 3.51945 3.93221e-06 -4.45012 
19 1 5.4852 9.48955 0.00223284 6.87279e-07 -4.44995 
828 1 3.77966 9.91705 5.27787 5.38117e-06 -4.45011 
20 1 3.7798 9.91646 1.76099 3.2283e-06 -4.44988 
833 1 2.07437 10.3434 3.51961 8.50408e-06 -4.44981 
25 1 2.07442 10.3436 0.00203491 6.14059e-06 -4.45001 
834 1 0.369026 10.7701 5.27791 1.32013e-05 -4.44972 
26 1 0.368776 10.7707 1.76066 2.83604e-06 -4.4501 
836 1 5.91257 11.1977 5.27819 6.82842e-06 -4.45008 
28 1 5.91218 11.1978 1.76077 9.68894e-06 -4.45001 
835 1 4.20665 11.6258 3.51946 3.56624e-05 -4.45043 
27 1 4.20678 11.6247 0.00250202 1.10952e-05 -4.44986 
841 1 2.50126 12.0532 5.27771 5.42865e-05 -4.45064 
33 1 2.50156 12.051 1.76128 4.21796e-05 -4.44937 
840 1 0.796277 12.4784 3.51959 5.092e-05 -4.44979 
32 1 0.796332 12.4784 0.00184982 4.26646e-05 -4.44973 
837 1 6.34019 12.9044 3.51902 9.56616e-05 -4.44944 
29 1 6.33971 12.9061 0.00306018 3.58671e-05 -4.45034 
839 1 4.6343 13.3325 5.27908 9.44719e-05 -4.4504 
31 1 4.63346 13.334 1.7605 0.000147967 -4.45037 
842 1 2.9278 13.7625 3.51832 0.000377519 -4.45139 
34 1 2.92802 13.7597 0.00402502 0.000221759 -4.44934 
845 1 1.22216 14.1897 5.27763 0.00034182 -4.45144 
37 1 1.22413 14.1856 1.76101 0.000295288 -4.44854 
1048 1 6.76694 14.6114 5.27801 0.000436705 -4.44864 
240 1 6.76941 14.614 1.76157 0.0003566 -4.45038 
838 1 5.06194 15.0362 3.51848 0.000908562 -4.44753 
30 1 5.06115 15.0428 0.0049141 0.000703862 -4.45099 
844 1 3.35405 15.4627 5.28174 0.00131266 -4.44606 
36 1 3.35463 15.4756 1.75886 0.00222431 -4.45302 
843 1 1.64695 15.8991 3.51626 0.00230378 -4.44904 
35 1 1.65113 15.8973 0.00545912 0.00164107 -4.44947 
1049 1 7.19164 16.3269 3.52377 0.00233452 -4.45162 
241 1 7.19817 16.319 7.03345 0.00215732 -4.4472 
849 1 5.48382 16.7383 5.27733 0.00450657 -4.4306 
41 1 5.49571 16.745 1.76499 0.00469476 -4.44958 
851 1 3.77998 17.1611 3.52712 0.00684309 -4.42885 
43 1 3.7832 17.1856 7.03314 0.0102418 -4.45802 
854 1 2.0767 17.5896 5.27718 0.00553644 -4.42885 
46 1 2.07529 17.6219 1.76196 0.0194302 -4.46218 
857 1 0.369904 18.0386 3.51824 5.8194 -4.30469 
49 1 0.36807 18.0191 0.00238963 0.00626241 -4.43267 
848 1 5.91258 18.4619 3.53809 11.6219 -4.1722 
40 1 5.9253 18.4358 7.02566 5.82342 -4.29745 
853 1 4.21023 18.8848 5.27346 11.1723 -4.03112 
45 1 4.22406 18.8367 1.77604 5.68762 -4.285 
852 1 2.51338 19.2978 3.53408 16.9786 -4.00498 
44 1 2.4935 19.302 7.021 10.8653 -4.16424 
858 1 0.80635 19.6977 5.28613 23.2206 -3.67898 
50 1 0.792818 19.7343 1.75657 16.6015 -3.87268 
48 1 2.975 20.8667 1.7526 53.528 -3.18985 
47 1 4.64908 20.485 0.0341433 33.899 -3.41981 
42 1 6.33535 20.1053 1.76341 23.4133 -3.65244 
856 1 2.975 27.1698 5.26973 53.528 -3.18985 
855 1 4.64908 27.5515 3.55128 33.899 -3.41981 
850 1 6.33535 27.9312 5.28055 23.4133 -3.65244 
859 1 0.792818 28.3022 5.27371 16.6015 -3.87268 
51 1 0.80635 28.3388 1.76899 23.2206 -3.67898 
866 1 2.4935 28.7345 3.50387 10.8653 -4.16424 
58 1 2.51338 28.7386 0.0169414 16.9786 -4.00498 
861 1 4.22406 29.1998 5.29317 5.68762 -4.285 
53 1 4.21023 29.1517 1.75632 11.1723 -4.03112 
869 1 5.9253 29.6007 3.50853 5.82342 -4.29745 
61 1 5.91258 29.5746 0.0209559 11.6219 -4.1722 
1475 1 0.368069 30.0173 3.51952 0.00626241 -4.43267 
667 1 0.369903 29.9979 7.03537 5.8194 -4.30469 
860 1 2.07529 30.4146 5.2791 0.0194302 -4.46218 
52 1 2.0767 30.4468 1.76005 0.00553644 -4.42885 
867 1 3.7832 30.8508 3.51601 0.0102418 -4.45802 
59 1 3.77998 30.8754 0.00998807 0.00684309 -4.42885 
863 1 5.49571 31.2914 5.28212 0.00469476 -4.44958 
55 1 5.48382 31.2982 1.7602 0.00450657 -4.4306 
870 1 7.19817 31.7175 3.51632 0.00215732 -4.4472 
62 1 7.19164 31.7096 0.00663216 0.00233452 -4.45162 
868 1 1.65113 32.1391 3.52259 0.00164107 -4.44947 
60 1 1.64695 32.1374 7.03339 0.00230378 -4.44904 
862 1 3.35463 32.5609 5.27599 0.00222431 -4.45302 
54 1 3.35405 32.5738 1.76461 0.00131266 -4.44606 
871 1 5.06115 32.9937 3.52205 0.000703862 -4.45099 
63 1 5.06194 33.0002 7.03562 0.000908562 -4.44753 
865 1 6.76941 33.4225 5.2787 0.0003566 -4.45038 
57 1 6.76694 33.425 1.76088 0.000436705 -4.44864 
872 1 1.22413 33.8509 5.27814 0.000295288 -4.44854 
64 1 1.22216 33.8468 1.7605 0.00034182 -4.45144 
878 1 2.92802 34.2768 3.52116 0.000221759 -4.44934 
70 1 2.9278 34.274 7.03546 0.000377519 -4.45139 
874 1 4.63346 34.7024 5.27763 0.000147967 -4.45037 
66 1 4.6343 34.704 1.76194 9.44718e-05 -4.4504 
881 1 6.33971 35.1304 3.52019 3.58671e-05 -4.45034 
73 1 6.34019 35.132 0.0018813 9.56617e-05 -4.44944 
879 1 0.796332 35.558 3.51898 4.26646e-05 -4.44973 
71 1 0.796276 35.5581 0.00245433 5.092e-05 -4.44979 
873 1 2.50156 35.9854 5.27841 4.21796e-05 -4.44937 
65 1 2.50126 35.9833 1.76058 5.42864e-05 -4.45064 
882 1 4.20678 36.4118 3.51964 1.10952e-05 -4.44986 
74 1 4.20665 36.4107 0.00232982 3.56624e-05 -4.45043 
876 1 5.91218 36.8387 5.2779 9.68894e-06 -4.45001 
68 1 5.91257 36.8388 1.76106 6.82842e-06 -4.45008 
1484 1 0.368776 37.2658 5.27779 2.83604e-06 -4.4501 
676 1 0.369026 37.2663 1.76078 1.32013e-05 -4.44972 
880 1 2.07442 37.6928 3.51917 6.14059e-06 -4.45001 
72 1 2.07437 37.693 0.00247867 8.50409e-06 -4.44981 
875 1 3.7798 38.12 5.27813 3.2283e-06 -4.44988 
67 1 3.77966 38.1194 1.76073 5.38117e-06 -4.45011 
883 1 5.4852 38.5469 3.51937 6.8728e-07 -4.44995 
75 1 5.48515 38.5466 0.0023158 3.93221e-06 -4.45012 
877 1 7.19074 38.974 5.27788 8.34385e-07 -4.45002 
69 1 7.19079 38.974 1.76082 7.91111e-07 -4.44998 
885 1 1.64712 39.401 5.27788 4.31938e-07 -4.45005 
77 1 1.64717 39.4013 1.76082 2.22293e-06 -4.44985 
893 1 3.35263 39.828 3.51932 5.65002e-07 -4.44999 
85 1 3.35262 39.8281 0.00229535 9.14827e-07 -4.44992 
888 1 5.0581 40.2551 5.27797 2.42132e-07 -4.44998 
80 1 5.05803 40.255 1.76076 5.42647e-07 -4.45001 
896 1 6.76358 40.6821 3.51934 4.61264e-08 -4.44998 
88 1 6.76354 40.682 0.00221555 4.76621e-07 -4.45003 
892 1 1.21989 41.1092 3.51936 1.33276e-07 -4.44998 
84 1 1.21991 41.1092 0.00216948 1.2905e-07 -4.44999 
887 1 2.92542 41.5362 5.2779 4.43349e-08 -4.45 
79 1 2.92544 41.5363 1.7608 2.96543e-07 -4.44994 
894 1 4.63092 41.9633 3.51934 4.49853e-08 -4.44999 
86 1 4.63091 41.9633 0.00221895 8.44358e-08 -4.44996 
890 1 6.3364 42.3903 5.27791 2.34031e-08 -4.44998 
82 1 6.33638 42.3903 1.76076 6.03858e-08 -4.45 
886 1 0.792706 42.8174 5.27789 7.64448e-09 -4.44998 
78 1 0.792695 42.8173 1.76075 6.29706e-08 -4.45 
895 1 2.49822 43.2444 3.51934 2.02642e-08 -4.44998 
87 1 2.49822 43.2444 0.00218873 1.70761e-08 -4.44998 
889 1 4.20372 43.6715 5.2779 3.8192e-09 -4.44998 
81 1 4.20373 43.6715 1.76077 3.52929e-08 -4.44997 
897 1 5.90922 44.0985 3.51933 4.69174e-09 -4.44998 
89 1 5.90922 44.0985 0.00219795 7.34287e-09 -4.44998 
1503 1 0.365524 44.5255 3.51932 4.16607e-09 -4.44998 
695 1 0.365518 44.5255 0.00219282 8.82582e-09 -4.44999 
898 1 2.07103 44.9526 5.2779 1.22814e-09 -4.44998 
90 1 2.07102 44.9526 1.76076 7.90007e-09 -4.44999 
904 1 3.77653 45.3796 3.51933 3.10544e-09 -4.44998 
96 1 3.77654 45.3796 0.00219253 1.83762e-09 -4.44998 
901 1 5.48204 45.8067 5.27789 5.29414e-10 -4.44998 
93 1 5.48204 45.8067 1.76076 4.70591e-09 -4.44998 
907 1 7.18754 46.2337 3.51932 8.04692e-10 -4.44998 
99 1 7.18754 46.2337 0.0021907 4.78957e-10 -4.44998 
905 1 1.64384 46.6608 3.51932 1.36359e-09 -4.44998 
97 1 1.64384 46.6608 0.002193 2.03164e-09 -4.44998 
900 1 3.34935 47.0878 5.27789 1.17042e-10 -4.44998 
92 1 3.34934 47.0878 1.76076 8.33687e-10 -4.44999 
908 1 5.05485 47.5149 3.51933 1.32166e-09 -4.44998 
100 1 5.05485 47.5149 0.002191 7.80981e-10 -4.44998 
903 1 6.76035 47.9419 5.27789 4.67399e-10 -4.44998 
95 1 6.76035 47.9419 1.76076 1.25698e-09 -4.44998 
899 1 1.21666 48.369 5.27789 8.16699e-10 -4.44998 
91 1 1.21666 48.369 1.76076 2.93048e-10 -4.44998 
906 1 2.92216 48.796 3.51932 1.90195e-09 -4.44998 
98 1 2.92216 48.796 0.00219139 2.02017e-09 -4.44998 
902 1 4.62766 49.223 5.27789 4.14976e-10 -4.44998 
94 1 4.62766 49.223 1.76076 3.54396e-10 -4.44998 
909 1 6.33317 49.6501 3.51932 3.73707e-09 -4.44999 
101 1 6.33317 49.6501 0.00218991 3.30558e-09 -4.44999 
916 1 0.789475 50.0771 3.51932 1.62733e-09 -4.44998 
108 1 0.789475 50.0771 0.00218959 1.85924e-09 -4.44998 
910 1 2.49497 50.5042 5.27789 4.95237e-09 -4.44998 
102 1 2.49497 50.5042 1.76076 4.36033e-09 -4.44998 
918 1 4.20047 50.9312 3.51932 7.72577e-09 -4.44998 
110 1 4.20047 50.9312 0.00219033 7.70217e-09 -4.44998 
913 1 5.90598 51.3583 5.27789 4.5324e-09 -4.44999 
105 1 5.90598 51.3583 1.76076 4.27736e-09 -4.44999 
1521 1 0.362301 51.7853 5.27789 2.16438e-08 -4.44999 
713 1 0.362301 51.7853 1.76076 2.11928e-08 -4.44999 
917 1 2.06779 52.2124 3.51932 7.9813e-09 -4.44998 
109 1 2.06779 52.2124 0.00218979 8.03022e-09 -4.44998 
912 1 3.77327 52.6394 5.27789 3.91597e-08 -4.44997 
104 1 3.77327 52.6394 1.76076 3.85319e-08 -4.44997 
919 1 5.47877 53.0664 3.51932 3.87328e-08 -4.44997 
111 1 5.47877 53.0664 0.00218984 3.86546e-08 -4.44997 
915 1 7.18431 53.4935 5.27789 4.53443e-08 -4.45 
107 1 7.18431 53.4935 1.76076 4.50076e-08 -4.45 
911 1 1.64064 53.9206 5.27789 1.35584e-07 -4.45 
103 1 1.64064 53.9206 1.76076 1.35132e-07 -4.45 
920 1 3.3461 54.3476 3.51932 4.97922e-08 -4.44998 
112 1 3.3461 54.3476 0.00218974 4.97628e-08 -4.44998 
914 1 5.05155 54.7746 5.27789 3.02955e-07 -4.44995 
106 1 5.05155 54.7746 1.76076 3.0235e-07 -4.44995 
922 1 6.75707 55.2016 3.51932 1.90333e-07 -4.44997 
114 1 6.75707 55.2016 0.00218966 1.90244e-07 -4.44997 
930 1 1.21348 55.6288 3.51932 4.31109e-07 -4.45003 
122 1 1.21348 55.6288 0.0021897 4.30765e-07 -4.45003 
924 1 2.91901 56.056 5.27789 8.04825e-07 -4.45003 
116 1 2.91901 56.056 1.76076 8.04428e-07 -4.45003 
931 1 4.62438 56.4829 3.51932 4.22097e-07 -4.44995 
123 1 4.62438 56.4829 0.00218967 4.22042e-07 -4.44995 
927 1 6.32976 56.9096 5.27789 2.19007e-06 -4.44989 
119 1 6.32976 56.9096 1.76076 2.18954e-06 -4.44989 
923 1 0.786178 57.3367 5.27789 9.35057e-07 -4.44997 
115 1 0.786178 57.3367 1.76076 9.34986e-07 -4.44997 
932 1 2.49194 57.7642 3.51932 3.80149e-06 -4.45011 
124 1 2.49194 57.7642 0.00218967 3.80122e-06 -4.45011 
926 1 4.19744 58.1915 5.27789 4.39087e-06 -4.45008 
118 1 4.19744 58.1915 1.76076 4.39057e-06 -4.45008 
934 1 5.90256 58.618 3.51932 4.10119e-06 -4.44986 
126 1 5.90256 58.618 0.00218964 4.10113e-06 -4.44986 
1540 1 0.358627 59.0444 3.51932 1.45442e-05 -4.44975 
732 1 0.358627 59.0444 0.00218965 1.45438e-05 -4.44975 
925 1 2.06454 59.4718 5.27789 5.26142e-06 -4.45 
117 1 2.06454 59.4718 1.76076 5.2614e-06 -4.45 
933 1 3.77064 59.9 3.51932 3.0808e-05 -4.45036 
125 1 3.77064 59.9 0.00218965 3.08079e-05 -4.45036 
928 1 5.47595 60.3273 5.27789 2.21451e-05 -4.45018 
120 1 5.47595 60.3273 1.76076 2.21449e-05 -4.45018 
935 1 7.18047 60.7527 3.51932 3.93719e-05 -4.4495 
127 1 7.18047 60.7527 0.00218963 3.93719e-05 -4.4495 
942 1 1.63631 61.1784 3.51932 9.03766e-05 -4.44942 
134 1 1.63631 61.1784 0.00218965 9.03764e-05 -4.44942 
937 1 3.34308 61.6069 5.27789 4.34226e-05 -4.45033 
129 1 3.34308 61.6069 1.76076 4.34226e-05 -4.45033 
945 1 5.05014 62.0369 3.51932 0.000241731 -4.45088 
137 1 5.05014 62.0369 0.00218964 0.000241731 -4.45088 
940 1 6.75457 62.4637 5.27789 0.000115374 -4.44992 
132 1 6.75457 62.4637 1.76076 0.000115374 -4.44992 
936 1 1.20797 62.8866 5.27789 0.000352583 -4.44877 
128 1 1.20797 62.8866 1.76076 0.000352583 -4.44877 
943 1 2.91335 63.3105 3.51932 0.000505855 -4.44893 
135 1 2.91335 63.3105 0.00218965 0.000505855 -4.44893 
939 1 4.62336 63.7422 5.27789 0.000437533 -4.45 
131 1 4.62336 63.7422 1.76076 0.000437533 -4.45 
946 1 6.33054 64.1778 3.51932 0.00172334 -4.4521 
138 1 6.33054 64.1778 0.00218964 0.00172334 -4.4521 
944 1 0.782483 64.6012 3.51932 0.00073487 -4.45042 
136 1 0.782483 64.6012 0.00218964 0.000734869 -4.45042 
938 1 2.48502 65.015 5.27789 0.00290049 -4.44404 
130 1 2.48502 65.015 1.76076 0.00290049 -4.44404 
947 1 4.1888 65.4394 3.51932 0.00329808 -4.44422 
139 1 4.1888 65.4394 0.00218964 0.00329809 -4.44422 
941 1 5.9016 65.8846 5.27789 0.00645596 -4.45492 
133 1 5.9016 65.8846 1.76076 0.00645596 -4.45492 
1548 1 0.368386 66.3246 5.27789 0.0187344 -4.45646 
740 1 0.368386 66.3246 1.76076 0.0187344 -4.45646 
955 1 2.06515 66.7313 3.51932 0.0262074 -4.42651 
147 1 2.06515 66.7313 0.00218965 0.0262074 -4.42651 
950 1 3.74292 67.1512 5.27789 0.0311536 -4.44045 
142 1 3.74292 67.1512 1.76076 0.0311536 -4.44045 
957 1 5.44718 67.5621 3.51932 0.0433191 -4.45187 
149 1 5.44718 67.5621 0.00218964 0.0433192 -4.45187 
953 1 7.22372 68.0081 5.27789 0.492828 -4.36356 
145 1 7.22372 68.0081 1.76076 0.492828 -4.36356 
949 1 1.65802 68.5322 5.27789 0.581567 -4.3078 
141 1 1.65802 68.5322 1.76076 0.581567 -4.3078 
958 1 3.25582 68.8893 3.51932 0.581462 -4.35483 
150 1 3.25582 68.8893 0.00218965 0.581462 -4.35483 
952 1 5.04907 69.2244 5.27789 2.84582 -4.33849 
144 1 5.04907 69.2244 1.76076 2.84582 -4.33849 
954 1 6.79851 69.6043 3.51932 8.5859 -4.1151 
146 1 6.79851 69.6043 0.00218964 8.5859 -4.1151 
956 1 1.09517 70.76 3.51932 8.16178 -4.28901 
148 1 1.09517 70.76 0.00218965 8.16178 -4.28901 
951 1 2.90788 70.76 5.27789 3.52036 -4.40633 
143 1 2.90788 70.76 1.76076 3.52036 -4.40633 
959 1 4.67305 70.76 3.51932 7.50692 -4.06938 
151 1 4.67305 70.76 0.00218965 7.50692 -4.06938 
1168 1 6.79851 71.9157 3.51932 8.58591 -4.1151 
360 1 6.79851 71.9157 0.00218964 8.58591 -4.1151 
961 1 5.04907 72.2955 5.27789 2.84582 -4.33849 
153 1 5.04907 72.2955 1.76076 2.84582 -4.33849 
960 1 3.25582 72.6307 3.51932 0.581463 -4.35483 
152 1 3.25582 72.6307 0.00218965 0.581463 -4.35483 
967 1 1.65802 72.9878 5.27789 0.581568 -4.3078 
159 1 1.65802 72.9878 1.76076 0.581568 -4.3078 
1172 1 7.22372 73.5119 5.27789 0.492829 -4.36356 
364 1 7.22372 73.5119 1.76076 0.492829 -4.36356 
962 1 5.44718 73.9579 3.51932 0.0433191 -4.45187 
154 1 5.44718 73.9579 0.00218965 0.0433191 -4.45187 
965 1 3.74292 74.3688 5.27789 0.0311535 -4.44045 
157 1 3.74292 74.3688 1.76076 0.0311535 -4.44045 
969 1 2.06515 74.7886 3.51932 0.0262074 -4.42651 
161 1 2.06515 74.7886 0.00218964 0.0262074 -4.42651 
972 1 0.368386 75.1954 5.27789 0.0187343 -4.45646 
164 1 0.368386 75.1954 1.76076 0.0187343 -4.45646 
964 1 5.9016 75.6354 5.27789 0.00645596 -4.45492 
156 1 5.9016 75.6354 1.76076 0.00645596 -4.45492 
963 1 4.1888 76.0806 3.51932 0.00329808 -4.44422 
155 1 4.1888 76.0806 0.00218965 0.00329808 -4.44422 
971 1 2.48502 76.505 5.27789 0.00290048 -4.44404 
163 1 2.48502 76.505 1.76076 0.00290048 -4.44404 
970 1 0.782483 76.9188 3.51932 0.000734868 -4.45042 
162 1 0.782483 76.9188 0.00218964 0.000734869 -4.45042 
973 1 6.33054 77.3421 3.51932 0.00172334 -4.4521 
165 1 6.33054 77.3421 0.00218964 0.00172334 -4.4521 
975 1 4.62336 77.7777 5.27789 0.000437533 -4.45 
167 1 4.62336 77.7777 1.76076 0.000437533 -4.45 
977 1 2.91335 78.2094 3.51932 0.000505854 -4.44893 
169 1 2.91335 78.2094 0.00218965 0.000505854 -4.44893 
980 1 1.20797 78.6334 5.27789 0.000352583 -4.44877 
172 1 1.20797 78.6334 1.76076 0.000352583 -4.44877 
1185 1 6.75457 79.0562 5.27789 0.000115374 -4.44992 
377 1 6.75457 79.0562 1.76076 0.000115374 -4.44992 
974 1 5.05014 79.4831 3.51932 0.000241731 -4.45088 
166 1 5.05014 79.4831 0.00218965 0.000241731 -4.45088 
979 1 3.34308 79.913 5.27789 4.34226e-05 -4.45033 
171 1 3.34308 79.913 1.76076 4.34225e-05 -4.45033 
978 1 1.63631 80.3415 3.51932 9.03762e-05 -4.44942 
170 1 1.63631 80.3415 0.00218965 9.03764e-05 -4.44942 
1186 1 7.18047 80.7672 3.51932 3.93718e-05 -4.4495 
378 1 7.18047 80.7672 0.00218964 3.93719e-05 -4.4495 
976 1 5.47595 81.1926 5.27789 2.21448e-05 -4.45018 
168 1 5.47595 81.1926 1.76076 2.2145e-05 -4.45018 
981 1 3.77064 81.6199 3.51932 3.08078e-05 -4.45036 
173 1 3.77064 81.6199 0.00218965 3.0808e-05 -4.45036 
982 1 2.06454 82.0482 5.27789 5.26139e-06 -4.45 
174 1 2.06454 82.0482 1.76076 5.26141e-06 -4.45 
985 1 0.358627 82.4756 3.51932 1.45438e-05 -4.44975 
177 1 0.358627 82.4756 0.00218965 1.45442e-05 -4.44975 
986 1 5.90256 82.902 3.51932 4.10113e-06 -4.44986 
178 1 5.90256 82.902 0.00218965 4.10118e-06 -4.44986 
989 1 4.19744 83.3285 5.27789 4.39056e-06 -4.45008 
181 1 4.19744 83.3285 1.76076 4.39086e-06 -4.45008 
988 1 2.49194 83.7558 3.51932 3.80122e-06 -4.45011 
180 1 2.49194 83.7558 0.00218967 3.80149e-06 -4.45011 
994 1 0.786179 84.1833 5.27789 9.34983e-07 -4.44997 
186 1 0.786179 84.1833 1.76076 9.35055e-07 -4.44997 
987 1 6.32976 84.6103 5.27789 2.18953e-06 -4.44989 
179 1 6.32976 84.6103 1.76076 2.19006e-06 -4.44989 
990 1 4.62438 85.0371 3.51932 4.22041e-07 -4.44995 
182 1 4.62438 85.0371 0.00218969 4.22097e-07 -4.44995 
993 1 2.91901 85.464 5.27789 8.04427e-07 -4.45003 
185 1 2.91901 85.464 1.76076 8.04824e-07 -4.45003 
995 1 1.21348 85.8912 3.51932 4.30765e-07 -4.45003 
187 1 1.21348 85.8912 0.00218968 4.31109e-07 -4.45003 
1197 1 6.75707 86.3184 3.51932 1.90244e-07 -4.44997 
389 1 6.75707 86.3184 0.00218964 1.90332e-07 -4.44997 
992 1 5.05155 86.7454 5.27789 3.0235e-07 -4.44995 
184 1 5.05155 86.7454 1.76076 3.02954e-07 -4.44995 
991 1 3.3461 87.1723 3.51932 4.97627e-08 -4.44998 
183 1 3.3461 87.1723 0.0021898 4.97921e-08 -4.44998 
997 1 1.64064 87.5993 5.27789 1.35132e-07 -4.45 
189 1 1.64064 87.5993 1.76076 1.35584e-07 -4.45 
1200 1 7.18431 88.0264 5.27789 4.50077e-08 -4.45 
392 1 7.18431 88.0264 1.76076 4.53444e-08 -4.45 
999 1 5.47877 88.4535 3.51932 3.86544e-08 -4.44997 
191 1 5.47877 88.4535 0.00218975 3.87327e-08 -4.44997 
1002 1 3.77327 88.8806 5.27789 3.85318e-08 -4.44997 
194 1 3.77327 88.8806 1.76076 3.91595e-08 -4.44997 
1005 1 2.06779 89.3076 3.51932 8.03018e-09 -4.44998 
197 1 2.06779 89.3076 0.00218997 7.98127e-09 -4.44998 
1008 1 0.362302 89.7346 5.27789 2.11929e-08 -4.44999 
200 1 0.362302 89.7346 1.76076 2.16439e-08 -4.44999 
1001 1 5.90598 90.1617 5.27789 4.27737e-09 -4.44999 
193 1 5.90598 90.1617 1.76076 4.53242e-09 -4.44999 
1000 1 4.20047 90.5887 3.51932 7.70212e-09 -4.44998 
192 1 4.20047 90.5887 0.00219002 7.72571e-09 -4.44998 
1007 1 2.49497 91.0158 5.27789 4.36032e-09 -4.44998 
199 1 2.49497 91.0158 1.76076 4.95235e-09 -4.44998 
1006 1 0.789475 91.4428 3.51932 1.85924e-09 -4.44998 
198 1 0.789475 91.4428 0.00219008 1.62733e-09 -4.44998 
1003 1 6.33317 91.8699 3.51932 3.30557e-09 -4.44999 
195 1 6.33317 91.8699 0.00219026 3.73707e-09 -4.44999 
1004 1 4.62766 92.2969 5.27789 3.54392e-10 -4.44998 
196 1 4.62766 92.2969 1.76076 4.14975e-10 -4.44998 
1009 1 2.92216 92.724 3.51933 2.02017e-09 -4.44998 
201 1 2.92216 92.724 0.00219032 1.90195e-09 -4.44998 
1010 1 1.21666 93.151 5.27789 2.93047e-10 -4.44998 
202 1 1.21666 93.151 1.76076 8.16697e-10 -4.44998 
1222 1 14.0096 0.0945536 3.51932 1.25711e-09 -4.44998 
414 1 14.0095 0.0945561 0.00218953 4.67472e-10 -4.44998 
1012 1 12.304 0.521601 5.27789 7.81063e-10 -4.44998 
204 1 12.304 0.5216 1.76075 1.32177e-09 -4.44998 
1014 1 10.5985 0.948657 3.51932 8.33652e-10 -4.44999 
206 1 10.5985 0.948651 0.00218625 1.17045e-10 -4.44998 
1017 1 8.89304 1.37571 5.27789 2.03164e-09 -4.44998 
209 1 8.89304 1.3757 1.76076 1.36358e-09 -4.44998 
1223 1 14.4367 1.80274 5.27789 4.79009e-10 -4.44998 
415 1 14.4367 1.80275 1.76076 8.0461e-10 -4.44998 
1011 1 12.7312 2.22978 3.51932 4.70617e-09 -4.44998 
203 1 12.7312 2.22979 0.00218751 5.29484e-10 -4.44998 
1016 1 11.0257 2.65683 5.27789 1.83766e-09 -4.44998 
208 1 11.0257 2.65683 1.76075 3.10554e-09 -4.44998 
1015 1 9.32022 3.08389 3.51932 7.89991e-09 -4.44999 
207 1 9.32022 3.08388 0.00218392 1.22815e-09 -4.44998 
1022 1 7.61471 3.51094 5.27789 8.82581e-09 -4.44999 
214 1 7.61472 3.51093 1.76076 4.16606e-09 -4.44998 
1013 1 13.1584 3.93797 5.27788 7.34311e-09 -4.44998 
205 1 13.1584 3.93798 1.76075 4.69166e-09 -4.44998 
1018 1 11.4529 4.36499 3.51931 3.52935e-08 -4.44997 
210 1 11.4529 4.36502 0.00218471 3.81925e-09 -4.44998 
1019 1 9.74742 4.79205 5.27789 1.70761e-08 -4.44998 
211 1 9.74741 4.79205 1.76074 2.02643e-08 -4.44998 
1023 1 8.04189 5.21914 3.51933 6.29702e-08 -4.45 
215 1 8.0419 5.2191 0.0021854 7.64449e-09 -4.44998 
1024 1 13.5856 5.6462 3.51932 6.0385e-08 -4.45 
216 1 13.5856 5.64617 0.00216955 2.3403e-08 -4.44998 
1026 1 11.8801 6.07317 5.27786 8.44365e-08 -4.44996 
218 1 11.8801 6.07322 1.76074 4.49852e-08 -4.44999 
1025 1 10.1746 6.50015 3.51928 2.96545e-07 -4.44994 
217 1 10.1746 6.50025 0.00218347 4.43348e-08 -4.45 
1032 1 8.46911 6.92726 5.27791 1.2905e-07 -4.44999 
224 1 8.46909 6.92727 1.76072 1.33276e-07 -4.44998 
1236 1 14.0127 7.35443 5.27786 4.76619e-07 -4.45003 
428 1 14.0128 7.35434 1.76074 4.61263e-08 -4.44998 
1027 1 12.3072 7.7815 3.51932 5.42646e-07 -4.45001 
219 1 12.3073 7.78139 0.00210813 2.42132e-07 -4.44998 
1030 1 10.6018 8.20834 5.27778 9.14829e-07 -4.44992 
222 1 10.6018 8.20845 1.76076 5.65002e-07 -4.44999 
1033 1 8.89637 8.63521 3.51926 2.22294e-06 -4.44985 
225 1 8.89632 8.6355 0.00220074 4.31937e-07 -4.45005 
1234 1 14.44 9.06246 3.51926 7.91112e-07 -4.44998 
426 1 14.4399 9.06252 0.00219739 8.34385e-07 -4.45002 
1029 1 12.7343 9.48988 5.27776 3.93221e-06 -4.45012 
221 1 12.7344 9.48955 1.76071 6.8728e-07 -4.44995 
1028 1 11.0289 9.91705 3.51935 5.38117e-06 -4.45011 
220 1 11.029 9.91646 0.00195181 3.2283e-06 -4.44988 
1035 1 9.32357 10.3434 5.2776 8.50409e-06 -4.44981 
227 1 9.32362 10.3436 1.76091 6.14059e-06 -4.45001 
1034 1 7.61822 10.7701 3.5193 1.32013e-05 -4.44972 
226 1 7.61797 10.7707 0.00228804 2.83604e-06 -4.4501 
1037 1 13.1618 11.1977 3.51902 6.82842e-06 -4.45008 
229 1 13.1614 11.1978 0.00217525 9.68894e-06 -4.45001 
1040 1 11.4558 11.6258 5.27775 3.56624e-05 -4.45043 
232 1 11.456 11.6247 1.76044 1.10952e-05 -4.44986 
1042 1 9.75046 12.0532 3.5195 5.42864e-05 -4.45064 
234 1 9.75075 12.051 0.00167012 4.21796e-05 -4.44937 
1045 1 8.04547 12.4784 5.27763 5.092e-05 -4.44979 
237 1 8.04553 12.4784 1.7611 4.26646e-05 -4.44973 
1039 1 13.5894 12.9044 5.2782 9.56616e-05 -4.44944 
231 1 13.5889 12.9061 1.75989 3.58671e-05 -4.45034 
1038 1 11.8835 13.3325 3.51814 9.44719e-05 -4.4504 
230 1 11.8827 13.334 0.00244801 0.000147967 -4.45037 
1044 1 10.177 13.7625 5.27889 0.000377519 -4.45139 
236 1 10.1772 13.7597 1.75892 0.000221759 -4.44934 
1043 1 8.47136 14.1897 3.51958 0.00034182 -4.45144 
235 1 8.47333 14.1856 0.00193678 0.000295288 -4.44854 
1250 1 14.0161 14.6114 3.5192 0.000436705 -4.44864 
442 1 14.0186 14.614 7.03565 0.0003566 -4.45038 
1041 1 12.3111 15.0362 5.27873 0.000908562 -4.44753 
233 1 12.3104 15.0428 1.75803 0.000703862 -4.45099 
1046 1 10.6032 15.4627 3.51547 0.00131266 -4.44606 
238 1 10.6038 15.4756 0.00408756 0.00222431 -4.45302 
1047 1 8.89615 15.8991 5.28096 0.00230378 -4.44904 
239 1 8.90033 15.8973 1.75749 0.00164107 -4.44947 
1251 1 14.4408 16.3269 5.27345 0.00233452 -4.45162 
443 1 14.4474 16.319 1.76376 0.00215732 -4.4472 
1050 1 12.733 16.7383 3.51988 0.00450657 -4.4306 
242 1 12.7449 16.745 7.03223 0.00469476 -4.44958 
1054 1 11.0292 17.1611 5.27009 0.00684309 -4.42885 
246 1 11.0324 17.1856 1.76407 0.0102418 -4.45802 
1053 1 9.32589 17.5896 3.52003 0.00553644 -4.42885 
245 1 9.32448 17.6219 7.03525 0.0194302 -4.46218 
1059 1 7.6191 18.0386 5.27898 5.8194 -4.30469 
251 1 7.61727 18.0191 1.76056 0.00626241 -4.43267 
1052 1 13.1618 18.4619 5.25912 11.6219 -4.1722 
244 1 13.1745 18.4358 1.77155 5.82342 -4.29745 
1055 1 11.4594 18.8848 3.52376 11.1723 -4.03112 
247 1 11.4733 18.8367 7.02118 5.68762 -4.285 
1058 1 9.76258 19.2978 5.26314 16.9786 -4.00498 
250 1 9.7427 19.302 1.77621 10.8653 -4.16424 
1060 1 8.05555 19.6977 3.51109 23.2206 -3.67898 
252 1 8.04201 19.7343 0.00637402 16.6015 -3.87268 
248 1 10.2242 20.8667 0.0103487 53.528 -3.18985 
249 1 11.8983 20.485 1.7288 33.899 -3.41981 
243 1 13.5845 20.1053 7.0338 23.4133 -3.65244 
1056 1 10.2242 27.1698 3.52748 53.528 -3.18985 
1057 1 11.8983 27.5515 5.24594 33.899 -3.41981 
1051 1 13.5845 27.9312 3.51667 23.4133 -3.65244 
1061 1 8.04201 28.3022 3.52351 16.6015 -3.87268 
253 1 8.05555 28.3388 7.02822 23.2206 -3.67898 
1062 1 9.7427 28.7345 5.29335 10.8653 -4.16424 
254 1 9.76258 28.7386 1.746 16.9786 -4.00498 
1068 1 11.4733 29.1998 3.50404 5.68762 -4.285 
260 1 11.4594 29.1517 0.00662401 11.1723 -4.03112 
1065 1 13.1745 29.6007 5.28868 5.82342 -4.29745 
257 1 13.1618 29.5746 1.74199 11.6219 -4.1722 
864 1 7.61727 30.0173 5.27769 0.00626241 -4.43267 
56 1 7.6191 29.9979 1.76184 5.8194 -4.30469 
1069 1 9.32448 30.4146 3.51812 0.0194302 -4.46218 
261 1 9.32589 30.4468 0.00289714 0.00553644 -4.42885 
1064 1 11.0324 30.8508 5.2812 0.0102418 -4.45802 
256 1 11.0292 30.8754 1.75296 0.00684309 -4.42885 
1072 1 12.7449 31.2914 3.51509 0.00469476 -4.44958 
264 1 12.733 31.2982 0.00274586 0.00450657 -4.4306 
1067 1 14.4474 31.7175 5.2809 0.00215732 -4.4472 
259 1 14.4408 31.7096 1.75631 0.00233452 -4.45162 
1063 1 8.90033 32.1391 5.27462 0.00164107 -4.44947 
255 1 8.89615 32.1374 1.76382 0.00230378 -4.44904 
1070 1 10.6038 32.5609 3.52122 0.00222431 -4.45302 
262 1 10.6032 32.5738 7.0326 0.00131266 -4.44606 
1066 1 12.3104 32.9937 5.27517 0.000703862 -4.45099 
258 1 12.3111 33.0002 1.7616 0.000908562 -4.44753 
1073 1 14.0186 33.4225 3.51851 0.0003566 -4.45038 
265 1 14.0161 33.425 0.00206571 0.000436705 -4.44864 
1081 1 8.47333 33.8509 3.51907 0.000295288 -4.44854 
273 1 8.47136 33.8468 0.00245094 0.00034182 -4.45144 
1075 1 10.1772 34.2768 5.27605 0.000221759 -4.44934 
267 1 10.177 34.274 1.76176 0.000377519 -4.45139 
1083 1 11.8827 34.7024 3.51958 0.000147967 -4.45037 
275 1 11.8835 34.704 7.03527 9.44718e-05 -4.4504 
1078 1 13.5889 35.1304 5.27702 3.58671e-05 -4.45034 
270 1 13.5894 35.132 1.76106 9.56616e-05 -4.44944 
1074 1 8.04553 35.558 5.27823 4.26646e-05 -4.44973 
266 1 8.04547 35.5581 1.76049 5.092e-05 -4.44979 
1082 1 9.75075 35.9854 3.5188 4.21796e-05 -4.44937 
274 1 9.75046 35.9833 0.00236679 5.42864e-05 -4.45064 
1077 1 11.456 36.4118 5.27758 1.10952e-05 -4.44986 
269 1 11.4558 36.4107 1.76062 3.56624e-05 -4.45043 
1084 1 13.1614 36.8387 3.51931 9.68894e-06 -4.45001 
276 1 13.1618 36.8388 0.00188966 6.82841e-06 -4.45008 
884 1 7.61797 37.2658 3.51942 2.83604e-06 -4.4501 
76 1 7.61822 37.2663 0.00216928 1.32013e-05 -4.44972 
1076 1 9.32362 37.6928 5.27805 6.14059e-06 -4.45001 
268 1 9.32357 37.693 1.76047 8.5041e-06 -4.44981 
1085 1 11.029 38.12 3.51909 3.2283e-06 -4.44988 
277 1 11.0289 38.1194 0.00221255 5.38117e-06 -4.45011 
1079 1 12.7344 38.5469 5.27785 6.8728e-07 -4.44995 
271 1 12.7343 38.5466 1.76063 3.9322e-06 -4.45012 
1086 1 14.4399 38.974 3.51933 8.34384e-07 -4.45002 
278 1 14.44 38.974 0.00212282 7.91112e-07 -4.44998 
1093 1 8.89632 39.401 3.51933 4.31936e-07 -4.45005 
285 1 8.89637 39.4013 0.0021302 2.22294e-06 -4.44985 
1088 1 10.6018 39.828 5.2779 5.65002e-07 -4.44999 
280 1 10.6018 39.8281 1.76065 9.1483e-07 -4.44992 
1095 1 12.3073 40.2551 3.51924 2.42132e-07 -4.44998 
287 1 12.3072 40.255 0.00218272 5.42646e-07 -4.45001 
1091 1 14.0128 40.6821 5.27788 4.61262e-08 -4.44998 
283 1 14.0127 40.682 1.76073 4.76619e-07 -4.45003 
1087 1 8.46909 41.1092 5.27786 1.33276e-07 -4.44998 
279 1 8.46911 41.1092 1.76078 1.2905e-07 -4.44999 
1096 1 10.1746 41.5362 3.51932 4.43346e-08 -4.45 
288 1 10.1746 41.5363 0.00215063 2.96546e-07 -4.44994 
1090 1 11.8801 41.9633 5.27787 4.49852e-08 -4.44999 
282 1 11.8801 41.9633 1.76073 8.44368e-08 -4.44996 
1098 1 13.5856 42.3903 3.5193 2.3403e-08 -4.44998 
290 1 13.5856 42.3903 0.00218603 6.03849e-08 -4.45 
1094 1 8.0419 42.8174 3.51932 7.64453e-09 -4.44998 
286 1 8.04189 42.8173 0.00219125 6.297e-08 -4.45 
1089 1 9.74741 43.2444 5.27787 2.02643e-08 -4.44998 
281 1 9.74742 43.2444 1.76076 1.70761e-08 -4.44998 
1097 1 11.4529 43.6715 3.51932 3.81926e-09 -4.44998 
289 1 11.4529 43.6715 0.00217211 3.52936e-08 -4.44997 