ITEM: TIMESTEP
142
ITEM: NUMBER OF ATOMS
1616
ITEM: BOX BOUNDS pp pp pp
9.0630687282475947e-03 2.9005847931271749e+01
4.7752799125547279e-02 9.3531237200874443e+01
1.4407319773871896e-03 7.0357082680226135e+00
ITEM: ATOMS id type x y z c_csym c_PE 
1020 1 6.75967 0.107847 5.27789 1.12209e-08 -4.45 
212 1 6.75968 0.107836 1.76077 1.95303e-08 -4.44998 
809 1 5.05429 0.535136 3.51931 4.77869e-08 -4.44999 
1 1 5.05429 0.535156 0.00221432 4.91645e-08 -4.44999 
813 1 3.34888 0.962483 5.27786 4.43073e-08 -4.44999 
5 1 3.34886 0.962468 1.76073 2.1034e-08 -4.44998 
812 1 1.64346 1.38979 3.51932 2.00757e-08 -4.44999 
4 1 1.64345 1.38982 0.00219012 3.97307e-08 -4.44998 
1021 1 7.18721 1.81713 3.51937 9.64249e-08 -4.44998 
213 1 7.18722 1.8171 0.00223115 4.79869e-08 -4.44999 
811 1 5.4818 2.24442 5.27787 4.14787e-08 -4.44998 
3 1 5.48182 2.24439 1.76078 2.20372e-08 -4.44999 
814 1 3.77641 2.67171 3.51932 2.02696e-08 -4.44999 
6 1 3.77638 2.6717 0.00220953 3.02153e-08 -4.44998 
817 1 2.07099 3.09903 5.27788 2.69812e-08 -4.44999 
9 1 2.07099 3.09899 1.76073 5.75671e-08 -4.44998 
820 1 0.365568 3.52632 3.51933 2.99995e-08 -4.44999 
12 1 0.365557 3.52634 0.00220589 2.36211e-08 -4.44998 
810 1 5.90934 3.95363 3.51934 4.33501e-08 -4.44998 
2 1 5.90932 3.95365 0.00219362 1.13564e-08 -4.44999 
816 1 4.2039 4.38093 5.27792 3.3815e-08 -4.44997 
8 1 4.20389 4.38096 1.76076 4.68677e-08 -4.44999 
815 1 2.49848 4.80822 3.51933 3.34396e-08 -4.44999 
7 1 2.49852 4.80827 0.00224237 7.98804e-08 -4.44999 
821 1 0.793039 5.23557 5.27793 5.44223e-08 -4.45001 
13 1 0.793066 5.23557 1.76077 1.45325e-08 -4.44998 
822 1 6.33684 5.66289 5.27786 7.14369e-08 -4.45 
14 1 6.33684 5.66289 1.76072 7.37094e-08 -4.44998 
823 1 4.6314 6.09013 3.51938 1.65488e-07 -4.44996 
15 1 4.63141 6.09023 0.00221075 8.15866e-08 -4.44999 
826 1 2.92602 6.51744 5.2779 1.55567e-07 -4.44994 
18 1 2.92602 6.51747 1.7608 5.26344e-08 -4.45 
829 1 1.22055 6.94477 3.51935 9.64621e-08 -4.44999 
21 1 1.22054 6.9448 0.00222942 9.37466e-08 -4.44999 
1031 1 6.76427 7.37219 3.51933 4.12176e-07 -4.45003 
223 1 6.76435 7.37209 0.00218843 8.5286e-08 -4.44998 
825 1 5.05886 7.79955 5.27788 5.82368e-07 -4.45002 
17 1 5.05891 7.79939 1.76084 3.00692e-07 -4.44998 
824 1 3.35353 8.22667 3.51945 7.55534e-07 -4.44992 
16 1 3.3535 8.22674 0.00220241 3.95193e-07 -4.45 
831 1 1.64815 8.65383 5.27791 1.5464e-06 -4.44986 
23 1 1.64807 8.65406 1.76078 3.27508e-07 -4.45006 
1036 1 7.19186 9.0813 5.27794 7.50585e-07 -4.44998 
228 1 7.19182 9.08136 1.76077 7.89257e-07 -4.45003 
827 1 5.48628 9.50899 3.51947 4.09562e-06 -4.45012 
19 1 5.48637 9.5086 0.00228543 6.62922e-07 -4.44996 
828 1 3.78091 9.93636 5.27789 4.52457e-06 -4.45011 
20 1 3.78106 9.93582 1.76099 3.28828e-06 -4.44988 
833 1 2.07568 10.3631 3.5196 7.46084e-06 -4.44982 
25 1 2.07573 10.3632 0.00208595 5.14608e-06 -4.45001 
834 1 0.37042 10.7901 5.27789 1.17164e-05 -4.44973 
26 1 0.370151 10.7906 1.76065 2.76244e-06 -4.4501 
836 1 5.91404 11.2179 5.27821 6.61121e-06 -4.45009 
28 1 5.91364 11.218 1.7608 1.00908e-05 -4.45002 
835 1 4.20822 11.6462 3.51952 3.51629e-05 -4.45043 
27 1 4.20839 11.6451 0.00251465 1.0943e-05 -4.44986 
841 1 2.5029 12.0738 5.27775 4.90192e-05 -4.45063 
33 1 2.50323 12.0717 1.76128 4.14314e-05 -4.44938 
840 1 0.798009 12.4993 3.51955 4.83338e-05 -4.44979 
32 1 0.798059 12.4994 0.00186151 4.11399e-05 -4.44973 
837 1 6.34199 12.9257 3.51906 9.03743e-05 -4.44946 
29 1 6.3415 12.9274 0.00306718 3.62508e-05 -4.45033 
839 1 4.63617 13.354 5.2791 9.3877e-05 -4.45041 
31 1 4.63534 13.3555 1.76053 0.000148382 -4.45037 
842 1 2.92979 13.7842 3.51838 0.000369067 -4.45138 
34 1 2.93 13.7814 0.00402409 0.000217789 -4.44935 
845 1 1.22426 14.2116 5.27764 0.000322722 -4.45142 
37 1 1.22621 14.2076 1.76101 0.000293931 -4.44855 
1048 1 6.76907 14.6337 5.27804 0.000427773 -4.44867 
240 1 6.77153 14.6362 1.76157 0.000349783 -4.45037 
838 1 5.06413 15.0588 3.5185 0.000892335 -4.44758 
30 1 5.06334 15.0653 0.00491049 0.000703435 -4.45098 
844 1 3.35634 15.4855 5.28174 0.00129284 -4.44612 
36 1 3.3569 15.4984 1.75885 0.00221991 -4.45299 
843 1 1.64938 15.9221 3.51631 0.00225716 -4.44905 
35 1 1.65347 15.9204 0.00541699 0.00161137 -4.44947 
1049 1 7.19415 16.3501 3.52369 0.00226474 -4.45163 
241 1 7.20064 16.3423 7.03353 0.00214146 -4.44725 
849 1 5.48639 16.7619 5.27735 0.00446948 -4.43075 
41 1 5.49822 16.7687 1.76492 0.00466286 -4.44965 
851 1 3.78257 17.185 3.52702 0.00678707 -4.42908 
43 1 3.78577 17.2095 7.03313 0.0102069 -4.45801 
854 1 2.07939 17.6139 5.27723 0.00541302 -4.42912 
46 1 2.07791 17.646 1.76188 0.019337 -4.4622 
857 1 0.372801 18.0628 3.51827 5.82733 -4.30476 
49 1 0.37087 18.0438 0.00233137 0.006184 -4.433 
848 1 5.91548 18.4864 3.53802 11.6361 -4.17223 
40 1 5.92822 18.4605 7.02567 5.82871 -4.29773 
853 1 4.21327 18.9097 5.27346 11.1833 -4.03098 
45 1 4.22696 18.8617 1.77576 5.69338 -4.28553 
852 1 2.51661 19.323 3.53395 16.9962 -4.00493 
44 1 2.49643 19.3275 7.02109 10.8702 -4.16448 
858 1 0.809273 19.7234 5.28555 23.2553 -3.67857 
50 1 0.795691 19.7599 1.75705 16.6046 -3.87247 
48 1 2.97854 20.893 1.75282 53.5929 -3.18919 
47 1 4.65263 20.5111 0.0336044 33.9235 -3.41937 
42 1 6.33842 20.1312 1.76369 23.4311 -3.65209 
856 1 2.97854 27.1434 5.26995 53.5929 -3.18919 
855 1 4.65263 27.5254 3.55074 33.9235 -3.41937 
850 1 6.33842 27.9053 5.28082 23.4311 -3.65209 
859 1 0.795691 28.2766 5.27418 16.6046 -3.87247 
51 1 0.809273 28.3131 1.76842 23.2553 -3.67857 
866 1 2.49643 28.709 3.50395 10.8702 -4.16448 
58 1 2.51661 28.7135 0.0168129 16.9962 -4.00493 
861 1 4.22696 29.1748 5.29289 5.69338 -4.28553 
53 1 4.21327 29.1268 1.75633 11.1833 -4.03098 
869 1 5.92822 29.576 3.50853 5.82871 -4.29773 
61 1 5.91548 29.5501 0.0208873 11.6361 -4.17223 
1475 1 0.370869 29.9927 3.51947 0.006184 -4.433 
667 1 0.372801 29.9737 7.0354 5.82733 -4.30476 
860 1 2.07791 30.3905 5.27901 0.019337 -4.4622 
52 1 2.07939 30.4225 1.76009 0.00541302 -4.42912 
867 1 3.78577 30.8269 3.516 0.0102069 -4.45801 
59 1 3.78257 30.8515 0.00989035 0.00678707 -4.42908 
863 1 5.49822 31.2678 5.28205 0.00466287 -4.44965 
55 1 5.48639 31.2745 1.76021 0.00446948 -4.43075 
870 1 7.20064 31.6942 3.5164 0.00214146 -4.44725 
62 1 7.19415 31.6864 0.00655203 0.00226474 -4.45163 
868 1 1.65347 32.1161 3.52255 0.00161137 -4.44947 
60 1 1.64937 32.1144 7.03345 0.00225716 -4.44905 
862 1 3.3569 32.5381 5.27598 0.00221991 -4.45299 
54 1 3.35634 32.5509 1.76461 0.00129284 -4.44612 
871 1 5.06334 32.9712 3.52204 0.000703435 -4.45098 
63 1 5.06413 32.9776 7.03563 0.000892335 -4.44758 
865 1 6.77153 33.4003 5.2787 0.000349783 -4.45037 
57 1 6.76907 33.4027 1.76091 0.000427773 -4.44867 
872 1 1.22621 33.8288 5.27814 0.000293931 -4.44855 
64 1 1.22426 33.8249 1.76051 0.000322722 -4.45142 
878 1 2.93 34.2551 3.52116 0.000217789 -4.44935 
70 1 2.92979 34.2522 7.03551 0.000369067 -4.45138 
874 1 4.63534 34.6809 5.27767 0.000148382 -4.45037 
66 1 4.63617 34.6825 1.76196 9.38771e-05 -4.45041 
881 1 6.3415 35.1091 3.5202 3.62508e-05 -4.45033 
73 1 6.34199 35.1108 0.00192974 9.03742e-05 -4.44946 
879 1 0.798058 35.5371 3.519 4.11399e-05 -4.44973 
71 1 0.798009 35.5371 0.00241981 4.83338e-05 -4.44979 
873 1 2.50323 35.9647 5.27841 4.14314e-05 -4.44938 
65 1 2.5029 35.9626 1.76062 4.90192e-05 -4.45063 
882 1 4.20839 36.3914 3.51965 1.0943e-05 -4.44986 
74 1 4.20822 36.3903 0.00238471 3.51629e-05 -4.45043 
876 1 5.91364 36.8185 5.27794 1.00908e-05 -4.45002 
68 1 5.91404 36.8186 1.76108 6.61122e-06 -4.45009 
1484 1 0.370151 37.2459 5.27778 2.76244e-06 -4.4501 
676 1 0.37042 37.2464 1.76075 1.17164e-05 -4.44973 
880 1 2.07573 37.6732 3.51922 5.14608e-06 -4.45001 
72 1 2.07568 37.6734 0.00246238 7.46084e-06 -4.44982 
875 1 3.78106 38.1007 5.27812 3.28828e-06 -4.44988 
67 1 3.78091 38.1001 1.76076 4.52457e-06 -4.45011 
883 1 5.48637 38.5279 3.51942 6.62921e-07 -4.44996 
75 1 5.48628 38.5275 0.00233126 4.09562e-06 -4.45012 
877 1 7.19182 38.9551 5.27791 7.89258e-07 -4.45003 
69 1 7.19186 38.9552 1.76081 7.50585e-07 -4.44998 
885 1 1.64807 39.3824 5.27791 3.27509e-07 -4.45006 
77 1 1.64815 39.3826 1.76078 1.5464e-06 -4.44986 
893 1 3.3535 39.8097 3.51934 3.95193e-07 -4.45 
85 1 3.35353 39.8098 0.00231336 7.55533e-07 -4.44992 
888 1 5.05891 40.2371 5.27798 3.00691e-07 -4.44998 
80 1 5.05886 40.2369 1.76075 5.82368e-07 -4.45002 
896 1 6.76435 40.6644 3.51932 8.52855e-08 -4.44998 
88 1 6.76427 40.6643 0.0021962 4.12177e-07 -4.45003 
892 1 1.22054 41.0917 3.51936 9.37468e-08 -4.44999 
84 1 1.22055 41.0917 0.00221528 9.64623e-08 -4.44999 
887 1 2.92602 41.519 5.27793 5.26339e-08 -4.45 
79 1 2.92602 41.519 1.76077 1.55567e-07 -4.44994 
894 1 4.63141 41.9462 3.51934 8.15869e-08 -4.44999 
86 1 4.6314 41.9463 0.00224531 1.65487e-07 -4.44996 
890 1 6.33684 42.3736 5.27786 7.37094e-08 -4.44998 
82 1 6.33684 42.3736 1.76073 7.14365e-08 -4.45 
886 1 0.793066 42.8009 5.2779 1.45326e-08 -4.44998 
78 1 0.793039 42.8009 1.7608 5.44222e-08 -4.45001 
895 1 2.49852 43.2282 3.51938 7.988e-08 -4.44999 
87 1 2.49848 43.2283 0.00219802 3.34397e-08 -4.44999 
889 1 4.20389 43.6555 5.27789 4.68678e-08 -4.44999 
81 1 4.2039 43.6555 1.76079 3.3815e-08 -4.44997 
897 1 5.90932 44.0828 3.51933 1.13564e-08 -4.44999 
89 1 5.90934 44.0828 0.00221066 4.33496e-08 -4.44998 
1503 1 0.365557 44.5101 3.51934 2.36208e-08 -4.44998 
695 1 0.365568 44.5102 0.00219932 2.99989e-08 -4.44999 
898 1 2.07099 44.9375 5.27787 5.75661e-08 -4.44998 
90 1 2.07099 44.9374 1.76075 2.69809e-08 -4.44999 
904 1 3.77638 45.3648 3.51934 3.0215e-08 -4.44998 
96 1 3.77641 45.3648 0.00218176 2.02695e-08 -4.44999 
901 1 5.48182 45.7921 5.27791 2.20368e-08 -4.44999 
93 1 5.4818 45.7921 1.76074 4.14793e-08 -4.44998 
907 1 7.18722 46.2194 3.51936 4.79872e-08 -4.44999 
99 1 7.18721 46.2193 0.00223442 9.64259e-08 -4.44998 
905 1 1.64345 46.6467 3.51932 3.97295e-08 -4.44998 
97 1 1.64346 46.6467 0.00218349 2.00748e-08 -4.44999 
900 1 3.34886 47.074 5.27787 2.10337e-08 -4.44998 
92 1 3.34888 47.074 1.76073 4.43063e-08 -4.44999 
908 1 5.05429 47.5013 3.51935 4.91635e-08 -4.44999 
100 1 5.05429 47.5013 0.00218054 4.77869e-08 -4.44999 
903 1 6.75968 47.9286 5.2779 1.95307e-08 -4.44998 
95 1 6.75967 47.9286 1.76076 1.12212e-08 -4.45 
899 1 1.21588 48.3559 5.27787 1.10952e-08 -4.44999 
91 1 1.21587 48.3559 1.76076 4.28414e-08 -4.44999 
906 1 2.92129 48.7832 3.51932 2.64862e-08 -4.44999 
98 1 2.92127 48.7832 0.00217501 5.43923e-08 -4.44999 
902 1 4.62671 49.2105 5.27785 4.3053e-08 -4.44998 
94 1 4.62673 49.2106 1.76077 4.04407e-08 -4.44999 
909 1 6.33213 49.6379 3.51933 1.69992e-08 -4.44999 
101 1 6.33216 49.6379 0.00216792 6.83853e-08 -4.44999 
916 1 0.788345 50.0652 3.51933 2.37403e-08 -4.44999 
108 1 0.788364 50.0652 0.00219208 1.39742e-08 -4.44999 
910 1 2.49377 50.4925 5.27787 1.02868e-08 -4.44999 
102 1 2.49373 50.4925 1.76075 5.53841e-08 -4.44999 
918 1 4.19915 50.9198 3.51933 9.56873e-08 -4.44998 
110 1 4.19915 50.9198 0.00217193 5.51344e-08 -4.44999 
913 1 5.90458 51.3471 5.27789 4.99146e-08 -4.45 
105 1 5.9046 51.3471 1.76074 4.28471e-08 -4.44999 
1521 1 0.360832 51.7745 5.27791 7.33953e-08 -4.45 
713 1 0.360837 51.7745 1.76073 1.18558e-07 -4.45 
917 1 2.06628 52.2018 3.51931 6.96544e-08 -4.44999 
109 1 2.06626 52.2018 0.00217948 7.87915e-08 -4.44999 
912 1 3.77166 52.629 5.2779 1.24174e-07 -4.44997 
104 1 3.77167 52.629 1.76076 1.08665e-07 -4.44998 
919 1 5.4771 53.0563 3.5193 1.59531e-07 -4.44998 
111 1 5.4771 53.0563 0.00218793 1.2726e-07 -4.44998 
915 1 7.18259 53.4836 5.27792 1.45268e-07 -4.45001 
107 1 7.18258 53.4836 1.76076 1.3783e-07 -4.44999 
911 1 1.63887 53.911 5.27791 2.57792e-07 -4.45001 
103 1 1.63888 53.911 1.76076 2.48901e-07 -4.45 
920 1 3.34431 54.3383 3.51931 2.21282e-07 -4.44997 
112 1 3.34431 54.3383 0.0021852 2.12832e-07 -4.44998 
914 1 5.04974 54.7654 5.2779 3.98321e-07 -4.44995 
106 1 5.04974 54.7654 1.76077 4.00426e-07 -4.44995 
922 1 6.75526 55.1927 3.51932 2.37475e-07 -4.44997 
114 1 6.75524 55.1927 0.00219021 2.89364e-07 -4.44997 
930 1 1.21165 55.6202 3.51932 4.74454e-07 -4.45003 
122 1 1.21165 55.6202 0.0021884 3.94477e-07 -4.45003 
924 1 2.91719 56.0476 5.27789 9.30396e-07 -4.45004 
116 1 2.9172 56.0476 1.76076 7.75766e-07 -4.45003 
931 1 4.62257 56.4747 3.51933 6.23923e-07 -4.44995 
123 1 4.62258 56.4747 0.00219789 5.83223e-07 -4.44995 
927 1 6.32798 56.9017 5.27788 2.28049e-06 -4.44988 
119 1 6.32798 56.9017 1.76076 2.02681e-06 -4.44989 
923 1 0.784428 57.329 5.27789 9.49796e-07 -4.44997 
115 1 0.78444 57.3291 1.76075 8.97691e-07 -4.44997 
932 1 2.49024 57.7568 3.51932 3.99918e-06 -4.45011 
124 1 2.49023 57.7568 0.00220507 3.55658e-06 -4.45011 
926 1 4.19578 58.1843 5.27788 4.57256e-06 -4.45008 
118 1 4.19576 58.1843 1.76076 4.0912e-06 -4.45008 
934 1 5.90094 58.611 3.51933 4.52422e-06 -4.44986 
126 1 5.90094 58.611 0.00218194 4.27853e-06 -4.44986 
1540 1 0.357048 59.0376 3.51932 1.5305e-05 -4.44976 
732 1 0.357061 59.0377 0.00219511 1.42253e-05 -4.44975 
925 1 2.06302 59.4653 5.27789 5.08153e-06 -4.45001 
117 1 2.06302 59.4653 1.76075 5.07262e-06 -4.45 
933 1 3.76918 59.8938 3.51932 3.08015e-05 -4.45035 
125 1 3.76917 59.8938 0.00218927 3.01237e-05 -4.45036 
928 1 5.47454 60.3213 5.27789 2.23919e-05 -4.45018 
120 1 5.47453 60.3213 1.76076 2.19005e-05 -4.45018 
935 1 7.17911 60.747 3.51932 3.85963e-05 -4.44951 
127 1 7.1791 60.747 0.00218742 3.88274e-05 -4.44951 
942 1 1.63501 61.1729 3.51932 8.93419e-05 -4.44943 
134 1 1.63501 61.1729 0.00219221 8.93902e-05 -4.44943 
937 1 3.34182 61.6016 5.27789 4.33035e-05 -4.45033 
129 1 3.34182 61.6016 1.76076 4.33689e-05 -4.45033 
945 1 5.04892 62.0318 3.51933 0.000239198 -4.45086 
137 1 5.04893 62.0318 0.00218505 0.000240985 -4.45087 
940 1 6.75342 62.4589 5.27789 0.000114499 -4.44991 
132 1 6.75342 62.4589 1.76076 0.000115152 -4.44992 
936 1 1.20689 62.882 5.27789 0.000349703 -4.44879 
128 1 1.20688 62.882 1.76075 0.000350707 -4.44879 
943 1 2.91231 63.3062 3.51932 0.000503223 -4.44895 
135 1 2.9123 63.3062 0.00218921 0.000506518 -4.44895 
939 1 4.62235 63.7381 5.27789 0.000432738 -4.45 
131 1 4.62235 63.7381 1.76076 0.000431945 -4.45 
946 1 6.32959 64.1739 3.51932 0.00170664 -4.45207 
138 1 6.32959 64.1739 0.00218884 0.00170812 -4.45207 
944 1 0.78161 64.5975 3.51932 0.000729395 -4.45043 
136 1 0.781614 64.5975 0.00218848 0.000729834 -4.45043 
938 1 2.48419 65.0116 5.27789 0.00288259 -4.44409 
130 1 2.4842 65.0116 1.76076 0.0028781 -4.4441 
947 1 4.18804 65.4362 3.51932 0.00327853 -4.4443 
139 1 4.18804 65.4362 0.00219045 0.0032801 -4.4443 
941 1 5.90082 65.8816 5.27789 0.00641689 -4.45489 
133 1 5.90082 65.8816 1.76076 0.00641374 -4.45489 
1548 1 0.36768 66.3218 5.27789 0.0186578 -4.45635 
740 1 0.367679 66.3218 1.76076 0.0186536 -4.45635 
955 1 2.06453 66.729 3.51932 0.0260989 -4.42656 
147 1 2.06453 66.729 0.00219009 0.0261004 -4.42656 
950 1 3.74235 67.1489 5.27789 0.0311015 -4.44045 
142 1 3.74235 67.149 1.76076 0.0311007 -4.44045 
957 1 5.44673 67.5601 3.51932 0.0429951 -4.45205 
149 1 5.44673 67.5601 0.00218859 0.0429932 -4.45205 
953 1 7.22301 68.0062 5.27789 0.493444 -4.36363 
145 1 7.22301 68.0062 1.76076 0.493437 -4.36363 
949 1 1.6575 68.5306 5.27789 0.582617 -4.30736 
141 1 1.65752 68.5306 1.76076 0.582634 -4.30737 
958 1 3.25553 68.8881 3.51932 0.580962 -4.3548 
150 1 3.25553 68.8881 0.00219382 0.580964 -4.3548 
952 1 5.04845 69.2232 5.27789 2.84852 -4.33861 
144 1 5.04845 69.2232 1.76075 2.84852 -4.33861 
954 1 6.79814 69.6038 3.51932 8.58643 -4.11585 
146 1 6.79814 69.6038 0.00218892 8.58639 -4.11585 
956 1 1.09477 70.76 3.51932 8.16494 -4.28715 
148 1 1.09477 70.76 0.00219053 8.16494 -4.28715 
951 1 2.90728 70.76 5.27789 3.52319 -4.40556 
143 1 2.90728 70.76 1.76076 3.52329 -4.40557 
959 1 4.67251 70.76 3.51932 7.51289 -4.07073 
151 1 4.67251 70.76 0.00218933 7.51289 -4.07073 
1168 1 6.79814 71.9162 3.51932 8.58643 -4.11585 
360 1 6.79814 71.9162 0.00219018 8.58641 -4.11584 
961 1 5.04845 72.2967 5.27789 2.84853 -4.33861 
153 1 5.04845 72.2967 1.76076 2.84856 -4.33861 
960 1 3.25553 72.6319 3.51932 0.580985 -4.3548 
152 1 3.25552 72.6319 0.00219156 0.58099 -4.35481 
967 1 1.65751 72.9893 5.27789 0.582628 -4.30736 
159 1 1.65753 72.9893 1.76076 0.582651 -4.30737 
1172 1 7.22301 73.5138 5.27789 0.493437 -4.36363 
364 1 7.22301 73.5138 1.76076 0.493442 -4.36362 
962 1 5.44673 73.9599 3.51932 0.0429945 -4.45205 
154 1 5.44672 73.9599 0.00218971 0.0429957 -4.45205 
965 1 3.74236 74.371 5.27789 0.0310988 -4.44045 
157 1 3.74235 74.371 1.76076 0.0311046 -4.44045 
969 1 2.06453 74.791 3.51932 0.0260997 -4.42656 
161 1 2.06453 74.791 0.00219082 0.0260981 -4.42656 
972 1 0.367677 75.1982 5.27789 0.018655 -4.45635 
164 1 0.36768 75.1982 1.76076 0.0186572 -4.45635 
964 1 5.90082 75.6384 5.27789 0.00641311 -4.45489 
156 1 5.90082 75.6384 1.76076 0.00641639 -4.45489 
963 1 4.18804 76.0837 3.51933 0.00328055 -4.4443 
155 1 4.18804 76.0837 0.00218797 0.00327891 -4.4443 
971 1 2.4842 76.5083 5.27789 0.00287856 -4.4441 
163 1 2.48419 76.5083 1.76076 0.00288283 -4.44409 
970 1 0.781614 76.9224 3.51932 0.000729793 -4.45043 
162 1 0.78161 76.9224 0.00219152 0.000729364 -4.45043 
973 1 6.32959 77.346 3.51932 0.0017082 -4.45207 
165 1 6.32959 77.3461 0.00219088 0.00170672 -4.45207 
975 1 4.62235 77.7819 5.27789 0.000431955 -4.45 
167 1 4.62235 77.7819 1.76076 0.000432792 -4.45 
977 1 2.9123 78.2138 3.51932 0.000506474 -4.44895 
169 1 2.91231 78.2138 0.00218937 0.00050319 -4.44895 
980 1 1.20688 78.638 5.27789 0.000350666 -4.44879 
172 1 1.20689 78.638 1.76076 0.00034968 -4.44879 
1185 1 6.75342 79.0611 5.27789 0.000115143 -4.44992 
377 1 6.75342 79.0611 1.76076 0.000114502 -4.44991 
974 1 5.04893 79.4881 3.51932 0.000240967 -4.45087 
166 1 5.04892 79.4881 0.00219302 0.000239181 -4.45086 
979 1 3.34182 79.9183 5.27789 4.33602e-05 -4.45033 
171 1 3.34182 79.9183 1.76076 4.32976e-05 -4.45033 
978 1 1.63501 80.3471 3.51933 8.93982e-05 -4.44943 
170 1 1.63501 80.3471 0.00218633 8.9349e-05 -4.44943 
1186 1 7.1791 80.773 3.51932 3.88223e-05 -4.44951 
378 1 7.17911 80.773 0.00218996 3.8591e-05 -4.44951 
976 1 5.47453 81.1987 5.27789 2.19025e-05 -4.45018 
168 1 5.47454 81.1986 1.76075 2.23937e-05 -4.45018 
981 1 3.76917 81.6262 3.51932 3.01268e-05 -4.45036 
173 1 3.76918 81.6262 0.00219035 3.08047e-05 -4.45035 
982 1 2.06302 82.0547 5.27789 5.07294e-06 -4.45 
174 1 2.06302 82.0547 1.76076 5.08186e-06 -4.45001 
985 1 0.357061 82.4823 3.51933 1.42239e-05 -4.44975 
177 1 0.357048 82.4823 0.00219006 1.53035e-05 -4.44975 
986 1 5.90094 82.9089 3.51932 4.2792e-06 -4.44986 
178 1 5.90094 82.9089 0.00220077 4.52497e-06 -4.44986 
989 1 4.19576 83.3357 5.27789 4.09076e-06 -4.45008 
181 1 4.19578 83.3357 1.76075 4.57218e-06 -4.45008 
988 1 2.49023 83.7632 3.51934 3.55607e-06 -4.45011 
180 1 2.49024 83.7632 0.00218604 3.99864e-06 -4.45011 
994 1 0.78444 84.1909 5.27789 8.97628e-07 -4.44997 
186 1 0.784428 84.1909 1.76075 9.49772e-07 -4.44997 
987 1 6.32798 84.6182 5.2779 2.02669e-06 -4.44989 
179 1 6.32798 84.6182 1.76075 2.28027e-06 -4.44988 
990 1 4.62258 85.0452 3.51933 5.83192e-07 -4.44995 
182 1 4.62257 85.0452 0.00219132 6.23896e-07 -4.44995 
993 1 2.9172 85.4724 5.27789 7.75861e-07 -4.45003 
185 1 2.91719 85.4724 1.76076 9.30512e-07 -4.45004 
995 1 1.21165 85.8998 3.51932 3.94561e-07 -4.45003 
187 1 1.21165 85.8998 0.00218434 4.74554e-07 -4.45003 
1197 1 6.75524 86.3272 3.51932 2.8935e-07 -4.44997 
389 1 6.75526 86.3272 0.00218216 2.37469e-07 -4.44997 
992 1 5.04974 86.7545 5.27791 4.00433e-07 -4.44995 
184 1 5.04974 86.7545 1.76076 3.98355e-07 -4.44995 
991 1 3.34431 87.1817 3.51932 2.12824e-07 -4.44998 
183 1 3.34431 87.1817 0.0021725 2.21268e-07 -4.44997 
997 1 1.63888 87.6089 5.27789 2.4887e-07 -4.45 
189 1 1.63887 87.6089 1.76077 2.5776e-07 -4.45001 
1200 1 7.18258 88.0363 5.27789 1.37843e-07 -4.44999 
392 1 7.18259 88.0363 1.76079 1.45287e-07 -4.45001 
999 1 5.4771 88.4637 3.51932 1.27266e-07 -4.44998 
191 1 5.4771 88.4637 0.00217057 1.59537e-07 -4.44998 
1002 1 3.77167 88.8909 5.2779 1.08669e-07 -4.44998 
194 1 3.77166 88.8909 1.76076 1.24181e-07 -4.44997 
1005 1 2.06626 89.3182 3.51931 7.88001e-08 -4.44999 
197 1 2.06628 89.3182 0.00218106 6.9664e-08 -4.44999 
1008 1 0.360837 89.7455 5.27787 1.18569e-07 -4.45 
200 1 0.360833 89.7455 1.76077 7.34029e-08 -4.45 
1001 1 5.9046 90.1728 5.27787 4.28407e-08 -4.44999 
193 1 5.90458 90.1729 1.76075 4.9913e-08 -4.45 
1000 1 4.19915 90.6002 3.51931 5.5134e-08 -4.44999 
192 1 4.19915 90.6002 0.002198 9.569e-08 -4.44998 
1007 1 2.49373 91.0275 5.27788 5.53858e-08 -4.44999 
199 1 2.49377 91.0275 1.76074 1.0288e-08 -4.44999 
1006 1 0.788364 91.4548 3.51933 1.39747e-08 -4.44999 
198 1 0.788345 91.4548 0.00219622 2.37389e-08 -4.44999 
1003 1 6.33216 91.882 3.5193 6.83881e-08 -4.44999 
195 1 6.33213 91.8821 0.00219661 1.6999e-08 -4.44999 
1004 1 4.62673 92.3094 5.27791 4.04429e-08 -4.44999 
196 1 4.62671 92.3094 1.76071 4.30528e-08 -4.44998 
1009 1 2.92127 92.7367 3.51931 5.43911e-08 -4.44999 
201 1 2.92129 92.7367 0.00219077 2.64856e-08 -4.44999 
1010 1 1.21587 93.1641 5.2779 4.28401e-08 -4.44999 
202 1 1.21588 93.164 1.76074 1.10948e-08 -4.44999 
1222 1 14.0089 0.107847 3.51932 1.12209e-08 -4.45 
414 1 14.0089 0.107836 0.00217604 1.95307e-08 -4.44998 
1012 1 12.3035 0.535136 5.2779 4.77872e-08 -4.44999 
204 1 12.3035 0.535156 1.76073 4.91644e-08 -4.44999 
1014 1 10.5981 0.962483 3.51935 4.43068e-08 -4.44999 
206 1 10.5981 0.962468 0.00221325 2.1034e-08 -4.44998 
1017 1 8.89265 1.38979 5.2779 2.00751e-08 -4.44999 
209 1 8.89264 1.38982 1.76076 3.97296e-08 -4.44998 
1223 1 14.4364 1.81713 5.27785 9.64256e-08 -4.44998 
415 1 14.4364 1.8171 1.76072 4.79873e-08 -4.44999 
1011 1 12.731 2.24442 3.51934 4.14791e-08 -4.44998 
203 1 12.731 2.24439 0.00216809 2.20371e-08 -4.44999 
1016 1 11.0256 2.67171 5.2779 2.02693e-08 -4.44999 
208 1 11.0256 2.6717 1.76074 3.02153e-08 -4.44998 
1015 1 9.32019 3.09903 3.51933 2.69808e-08 -4.44999 
207 1 9.32019 3.09899 0.00221183 5.75666e-08 -4.44998 
1022 1 7.61476 3.52632 5.27788 2.99991e-08 -4.44999 
214 1 7.61475 3.52634 1.76074 2.3621e-08 -4.44998 
1013 1 13.1585 3.95363 5.27787 4.33499e-08 -4.44998 
205 1 13.1585 3.95365 1.76075 1.13565e-08 -4.44999 
1018 1 11.4531 4.38093 3.51929 3.38151e-08 -4.44997 
210 1 11.4531 4.38096 0.00218858 4.68676e-08 -4.44999 
1019 1 9.74768 4.80822 5.27788 3.34401e-08 -4.44999 
211 1 9.74771 4.80827 1.7607 7.98792e-08 -4.44999 
1023 1 8.04223 5.23557 3.51928 5.44226e-08 -4.45001 
215 1 8.04226 5.23557 0.00217646 1.45324e-08 -4.44998 
1024 1 13.586 5.66289 3.51935 7.14367e-08 -4.45 
216 1 13.586 5.66289 0.00222276 7.37092e-08 -4.44998 
1026 1 11.8806 6.09013 5.27783 1.65489e-07 -4.44996 
218 1 11.8806 6.09023 1.76074 8.15861e-08 -4.44999 
1025 1 10.1752 6.51744 3.51931 1.55567e-07 -4.44994 
217 1 10.1752 6.51747 0.00214806 5.26341e-08 -4.45 
1032 1 8.46974 6.94477 5.27786 9.64624e-08 -4.44999 
224 1 8.46974 6.9448 1.76072 9.37468e-08 -4.44999 
1236 1 14.0135 7.37219 5.27788 4.12176e-07 -4.45003 
428 1 14.0135 7.37209 1.76076 8.52858e-08 -4.44998 
1027 1 12.3081 7.79955 3.51933 5.82368e-07 -4.45002 
219 1 12.3081 7.79939 0.00210211 3.00693e-07 -4.44998 
1030 1 10.6027 8.22667 5.27777 7.55535e-07 -4.44992 
222 1 10.6027 8.22674 1.76074 3.95194e-07 -4.45 
1033 1 8.89735 8.65383 3.5193 1.5464e-06 -4.44986 
225 1 8.89727 8.65406 0.00216777 3.27508e-07 -4.45006 
1234 1 14.4411 9.0813 3.51927 7.50585e-07 -4.44998 
426 1 14.441 9.08136 0.00217176 7.89255e-07 -4.45003 
1029 1 12.7355 9.50899 5.27775 4.09562e-06 -4.45012 
221 1 12.7356 9.5086 1.76066 6.62922e-07 -4.44996 
1028 1 11.0301 9.93636 3.51932 4.52457e-06 -4.45011 
220 1 11.0303 9.93582 0.00195551 3.28828e-06 -4.44988 
1035 1 9.32488 10.3631 5.27762 7.46085e-06 -4.44982 
227 1 9.32492 10.3632 1.76086 5.14608e-06 -4.45001 
1034 1 7.61962 10.7901 3.51933 1.17164e-05 -4.44973 
226 1 7.61935 10.7906 0.00229964 2.76243e-06 -4.4501 
1037 1 13.1632 11.2179 3.519 6.61121e-06 -4.45009 
229 1 13.1628 11.218 0.00214386 1.00908e-05 -4.45002 
1040 1 11.4574 11.6462 5.2777 3.51629e-05 -4.45043 
232 1 11.4576 11.6451 1.76043 1.0943e-05 -4.44986 
1042 1 9.7521 12.0738 3.51946 4.90192e-05 -4.45063 
234 1 9.75242 12.0717 0.00167084 4.14314e-05 -4.44938 
1045 1 8.04721 12.4993 5.27766 4.83338e-05 -4.44979 
237 1 8.04725 12.4994 1.76108 4.11399e-05 -4.44973 
1039 1 13.5912 12.9257 5.27815 9.03742e-05 -4.44946 
231 1 13.5907 12.9274 1.75988 3.62508e-05 -4.45033 
1038 1 11.8854 13.354 3.51812 9.3877e-05 -4.45041 
230 1 11.8845 13.3555 0.00241197 0.000148382 -4.45037 
1044 1 10.179 13.7842 5.27884 0.000369067 -4.45138 
236 1 10.1792 13.7814 1.75892 0.000217789 -4.44935 
1043 1 8.47346 14.2116 3.51957 0.000322722 -4.45142 
235 1 8.4754 14.2076 0.00193655 0.000293931 -4.44855 
1250 1 14.0183 14.6337 3.51917 0.000427773 -4.44867 
442 1 14.0207 14.6362 7.03564 0.000349783 -4.45037 
1041 1 12.3133 15.0588 5.27872 0.000892335 -4.44758 
233 1 12.3125 15.0653 1.75804 0.000703435 -4.45098 
1046 1 10.6055 15.4855 3.51547 0.00129284 -4.44612 
238 1 10.6061 15.4984 0.00410114 0.00221991 -4.45299 
1047 1 8.89857 15.9221 5.2809 0.00225716 -4.44905 
239 1 8.90267 15.9204 1.75753 0.00161137 -4.44947 
1251 1 14.4433 16.3501 5.27353 0.00226474 -4.45163 
443 1 14.4498 16.3423 1.76368 0.00214146 -4.44725 
1050 1 12.7356 16.7619 3.51987 0.00446948 -4.43075 
242 1 12.7474 16.7687 7.03229 0.00466286 -4.44965 
1054 1 11.0318 17.185 5.27019 0.00678707 -4.42908 
246 1 11.035 17.2095 1.76408 0.0102069 -4.45801 
1053 1 9.32858 17.6139 3.51999 0.00541302 -4.42912 
245 1 9.32711 17.646 7.03534 0.019337 -4.4622 
1059 1 7.622 18.0628 5.27895 5.82733 -4.30476 
251 1 7.62007 18.0438 1.76061 0.006184 -4.433 
1052 1 13.1647 18.4864 5.25919 11.6361 -4.17223 
244 1 13.1774 18.4605 1.77155 5.82871 -4.29773 
1055 1 11.4625 18.9097 3.52375 11.1833 -4.03098 
247 1 11.4762 18.8617 7.02145 5.69338 -4.28553 
1058 1 9.7658 19.323 5.26327 16.9962 -4.00493 
250 1 9.74563 19.3275 1.77613 10.8702 -4.16448 
1060 1 8.05847 19.7234 3.51166 23.2553 -3.67857 
252 1 8.04489 19.7599 0.0058998 16.6046 -3.87247 
248 1 10.2277 20.893 0.0101258 53.5929 -3.18919 
249 1 11.9018 20.5111 1.72934 33.9235 -3.41937 
243 1 13.5876 20.1312 7.03353 23.4311 -3.65209 
1056 1 10.2277 27.1434 3.52726 53.5929 -3.18919 
1057 1 11.9018 27.5254 5.24648 33.9235 -3.41937 
1051 1 13.5876 27.9053 3.51639 23.4311 -3.65209 
1061 1 8.04489 28.2766 3.52303 16.6046 -3.87247 
253 1 8.05847 28.3131 7.0288 23.2553 -3.67857 
1062 1 9.74562 28.709 5.29326 10.8702 -4.16448 
254 1 9.7658 28.7135 1.74613 16.9962 -4.00493 
1068 1 11.4762 29.1748 3.50432 5.69338 -4.28553 
260 1 11.4625 29.1268 0.00662013 11.1833 -4.03098 
1065 1 13.1774 29.576 5.28868 5.82871 -4.29773 
257 1 13.1647 29.5501 1.74206 11.6361 -4.17223 
864 1 7.62007 29.9927 5.27775 0.006184 -4.433 
56 1 7.622 29.9737 1.76181 5.82733 -4.30476 
1069 1 9.32711 30.3905 3.5182 0.019337 -4.4622 
261 1 9.32858 30.4225 0.00285246 0.00541302 -4.42912 
1064 1 11.035 30.8269 5.28122 0.010207 -4.45801 
256 1 11.0318 30.8515 1.75306 0.00678707 -4.42908 
1072 1 12.7474 31.2678 3.51516 0.00466287 -4.44965 
264 1 12.7356 31.2745 0.00273452 0.00446948 -4.43075 
1067 1 14.4498 31.6942 5.28082 0.00214146 -4.44725 
259 1 14.4433 31.6864 1.75639 0.00226474 -4.45163 
1063 1 8.90266 32.1161 5.27466 0.00161137 -4.44947 
255 1 8.89857 32.1144 1.76377 0.00225716 -4.44905 
1070 1 10.6061 32.5381 3.52123 0.00221991 -4.45299 
262 1 10.6055 32.5509 7.03261 0.00129284 -4.44612 
1066 1 12.3125 32.9712 5.27517 0.000703435 -4.45098 
258 1 12.3133 32.9776 1.76158 0.000892335 -4.44758 
1073 1 14.0207 33.4003 3.51851 0.000349783 -4.45037 
265 1 14.0183 33.4027 0.00203663 0.000427773 -4.44867 
1081 1 8.4754 33.8288 3.51907 0.000293931 -4.44855 
273 1 8.47346 33.8249 0.00243765 0.000322722 -4.45142 
1075 1 10.1792 34.2551 5.27606 0.000217789 -4.44935 
267 1 10.179 34.2522 1.7617 0.000369067 -4.45138 
1083 1 11.8845 34.6809 3.51955 0.000148382 -4.45037 
275 1 11.8854 34.6825 7.03525 9.38771e-05 -4.45041 
1078 1 13.5907 35.1091 5.27701 3.62508e-05 -4.45033 
270 1 13.5912 35.1108 1.76102 9.03742e-05 -4.44946 
1074 1 8.04725 35.5371 5.27822 4.11399e-05 -4.44973 
266 1 8.0472 35.5371 1.76053 4.83338e-05 -4.44979 
1082 1 9.75242 35.9647 3.5188 4.14314e-05 -4.44938 
274 1 9.7521 35.9626 0.00232924 4.90192e-05 -4.45063 
1077 1 11.4576 36.3914 5.27757 1.0943e-05 -4.44986 
269 1 11.4574 36.3903 1.76056 3.51629e-05 -4.45043 
1084 1 13.1628 36.8185 3.51928 1.00908e-05 -4.45002 
276 1 13.1632 36.8186 0.0018659 6.61121e-06 -4.45009 
884 1 7.61935 37.2459 3.51943 2.76244e-06 -4.4501 
76 1 7.61962 37.2464 0.00219467 1.17164e-05 -4.44973 
1076 1 9.32492 37.6732 5.27799 5.14608e-06 -4.45001 
268 1 9.32488 37.6734 1.76048 7.46084e-06 -4.44982 
1085 1 11.0303 38.1007 3.51909 3.28828e-06 -4.44988 
277 1 11.0301 38.1001 0.00218515 4.52457e-06 -4.45011 
1079 1 12.7356 38.5279 5.27779 6.62921e-07 -4.44996 
271 1 12.7355 38.5275 1.76061 4.09562e-06 -4.45012 
1086 1 14.441 38.9551 3.51931 7.89256e-07 -4.45003 
278 1 14.4411 38.9552 0.00213984 7.50586e-07 -4.44998 
1093 1 8.89727 39.3824 3.5193 3.27509e-07 -4.45006 
285 1 8.89735 39.3826 0.00216642 1.5464e-06 -4.44986 
1088 1 10.6027 39.8097 5.27788 3.95194e-07 -4.45 
280 1 10.6027 39.8098 1.76063 7.55533e-07 -4.44992 
1095 1 12.3081 40.2371 3.51924 3.00692e-07 -4.44998 
287 1 12.3081 40.2369 0.0021964 5.82368e-07 -4.45002 
1091 1 14.0135 40.6644 5.27789 8.52852e-08 -4.44998 
283 1 14.0135 40.6643 1.76075 4.12176e-07 -4.45003 
1087 1 8.46974 41.0917 5.27785 9.37471e-08 -4.44999 
279 1 8.46974 41.0917 1.76073 9.64626e-08 -4.44999 
1096 1 10.1752 41.519 3.51928 5.26336e-08 -4.45 
288 1 10.1752 41.519 0.00217504 1.55567e-07 -4.44994 
1090 1 11.8806 41.9462 5.27787 8.15863e-08 -4.44999 
282 1 11.8806 41.9463 1.7607 1.65488e-07 -4.44996 
1098 1 13.586 42.3736 3.51936 7.37091e-08 -4.44998 
290 1 13.586 42.3736 0.0022208 7.14363e-08 -4.45 
1094 1 8.04226 42.8009 3.51931 1.45325e-08 -4.44998 
286 1 8.04223 42.8009 0.00214894 5.44227e-08 -4.45001 
1089 1 9.74771 43.2282 5.27784 7.98791e-08 -4.44999 
281 1 9.74768 43.2283 1.76075 3.34399e-08 -4.44999 
1097 1 11.4531 43.6555 3.51932 4.68681e-08 -4.44999 