ITEM: TIMESTEP
0
ITEM: NUMBER OF ATOMS
8
ITEM: BOX BOUNDS pp pp pp
3.0996205949423146e-03 2.9011811379405056e+01
2.8925167696445223e-02 8.7050064832303562e+01
-5.9280508142702972e-06 7.0371549280508150e+00
ITEM: ATOMS id type x y z c_csym c_PE 
1 2 4.62362 42.7277 1.76003 0 -0.126668 
2 2 4.62362 42.7277 5.27861 0 -0.126668 
3 2 11.8758 42.7277 0.000743289 0 -0.126668 
4 2 11.8758 42.7277 3.51932 0 -0.126668 
5 2 19.128 42.7277 1.76003 0 -0.126668 
6 2 19.128 42.7277 5.27861 0 -0.126668 
7 2 26.3802 42.7277 0.000743289 0 -0.126668 
8 2 26.3802 42.7277 3.51932 0 -0.126668 
