ITEM: TIMESTEP
86
ITEM: NUMBER OF ATOMS
404
ITEM: BOX BOUNDS pp pp pp
4.8760581309305459e-03 1.4507455744043270e+01
3.4254324559386956e-02 8.7044736488485611e+01
4.2546008738116433e-04 3.5185745399126187e+00
ITEM: ATOMS id type x y z c_csym c_peratom 
1 1 5.05266 0.504004 0.00117549 3.05398e-08 -4.44998 
2 1 5.90647 3.92078 0.00117548 3.15469e-07 -4.45002 
3 1 5.47959 2.21238 1.76025 2.08146e-08 -4.45001 
4 1 1.64033 1.35817 0.00117591 7.02177e-07 -4.44999 
5 1 3.34651 0.931102 1.76025 1.28023e-07 -4.44998 
6 1 3.77348 2.63939 0.00117571 1.6887e-07 -4.44998 
7 1 2.49451 4.7748 0.00117576 4.65789e-07 -4.44996 
8 1 4.20045 4.34783 1.76025 1.23017e-07 -4.44999 
9 1 2.06748 3.06645 1.76025 1.90454e-07 -4.44997 
13 1 0.788371 5.2018 1.76025 6.07096e-07 -4.44998 
12 1 0.361326 3.49362 0.00117563 8.59447e-08 -4.45 
212 1 6.75873 0.0768681 1.76025 2.49007e-07 -4.45 
213 1 7.18564 1.78531 0.00117549 1.24215e-07 -4.45001 
14 1 6.3335 5.62907 1.76025 4.61758e-07 -4.45004 
15 1 4.62734 6.05637 0.00117513 1.58912e-06 -4.45005 
16 1 3.34836 8.19211 0.00117478 5.58483e-06 -4.45008 
17 1 5.05442 7.7647 1.76025 3.44699e-06 -4.45013 
18 1 2.92149 6.48337 1.76025 3.85392e-07 -4.44997 
19 1 5.48177 9.47235 0.00117468 4.80684e-06 -4.45002 
20 1 3.77499 9.90067 1.76025 2.71133e-05 -4.45036 
21 1 1.21563 6.91011 0.00117518 2.08792e-06 -4.44991 
26 1 0.363906 10.7536 1.76025 3.5207e-05 -4.44952 
23 1 1.64272 8.6187 1.76025 3.94315e-06 -4.44987 
25 1 2.06911 10.3281 0.00117479 2.55234e-05 -4.45018 
223 1 6.76079 7.33713 0.00117476 1.58517e-06 -4.44999 
228 1 7.18822 9.045 1.76025 1.57522e-05 -4.44978 
27 1 4.2022 11.6077 0.00117454 4.15068e-05 -4.45035 
28 1 5.90948 11.1793 1.76025 8.53486e-05 -4.44944 
29 1 6.33735 12.8875 0.00117473 0.000343038 -4.44878 
30 1 5.05908 15.0159 0.00117445 0.00287439 -4.44408 
31 1 4.63128 13.3115 1.76025 0.000487691 -4.44897 
32 1 0.789318 12.4646 0.00117477 0.000115448 -4.4499 
33 1 2.49444 12.0377 1.76025 0.000230883 -4.45088 
34 1 2.92058 13.7432 0.00117459 0.000442464 -4.45003 
35 1 1.64113 15.8857 0.0011746 0.00640603 -4.45486 
36 1 3.35449 15.4405 1.76025 0.00317398 -4.44431 
37 1 1.21284 14.1788 1.76025 0.00169362 -4.45207 
240 1 6.76235 14.602 1.76025 0.000727331 -4.45039 
241 1 7.17597 16.3253 0.00117458 0.018357 -4.45643 
40 1 5.88528 18.5322 0.00117455 0.603083 -4.30499 
41 1 5.47856 16.732 1.76025 0.0260318 -4.42649 
42 1 6.44884 20.773 1.76025 8.16455 -4.28689 
43 1 3.79977 17.152 0.00117439 0.0308232 -4.44061 
44 1 2.493 19.2257 0.00117344 2.85649 -4.33836 
45 1 4.2867 18.8896 1.76025 0.59451 -4.35347 
46 1 2.09483 17.5636 1.76025 0.0423128 -4.45208 
47 1 4.63553 20.7608 0.00117471 3.51506 -4.40551 
48 1 2.87041 20.7614 1.76025 7.50767 -4.07075 
49 1 0.318486 18.0091 0.00117474 0.506944 -4.36233 
50 1 0.742252 19.607 1.76025 8.61852 -4.11552 
51 1 0.746897 21.9193 1.76025 8.56048 -4.11545 
52 1 2.09778 23.9609 1.76025 0.0438913 -4.45158 
53 1 4.28898 22.6325 1.76025 0.567999 -4.35637 
54 1 3.35637 26.0832 1.76025 0.00342477 -4.44416 
55 1 5.4804 24.7906 1.76025 0.0261931 -4.42663 
63 1 5.0605 26.5074 0.00117539 0.00296837 -4.44404 
57 1 6.76337 26.9211 1.76025 0.000740911 -4.45048 
58 1 2.49615 22.2982 0.00117414 2.84255 -4.33884 
59 1 3.80249 24.3712 0.00117468 0.0315035 -4.44028 
60 1 1.64284 25.6378 0.00117503 0.00657928 -4.45489 
61 1 5.8875 22.9892 0.00117473 0.5629 -4.31074 
62 1 7.17752 25.1975 0.00117514 0.0191728 -4.45641 
263 1 0.320263 23.5143 0.00117488 0.479886 -4.36457 
64 1 1.2137 27.3445 1.76025 0.00178329 -4.45215 
65 1 2.49435 29.4856 1.76025 0.000245834 -4.45091 
66 1 4.63191 28.212 1.76025 0.000517181 -4.44891 
67 1 3.77419 31.6225 1.76025 3.21437e-05 -4.45038 
68 1 5.90918 30.3441 1.76025 9.13193e-05 -4.44942 
69 1 7.18721 32.4782 1.76025 1.43779e-05 -4.44975 
70 1 2.92136 27.7802 0.00117538 0.000457068 -4.45 
71 1 0.789491 29.0587 0.00117571 0.000118473 -4.44995 
72 1 2.0684 31.1952 0.00117594 2.21567e-05 -4.45019 
73 1 6.33778 28.636 0.0011758 0.000372948 -4.44877 
74 1 4.20193 29.9156 0.00117577 4.52494e-05 -4.45034 
75 1 5.48074 32.0508 0.00117543 6.43907e-06 -4.45002 
272 1 0.363338 30.7699 1.76025 4.14349e-05 -4.4495 
77 1 1.6417 32.9046 1.76025 3.92892e-06 -4.44986 
78 1 0.787283 36.3212 1.76025 5.56906e-07 -4.44998 
79 1 2.92041 35.0398 1.76025 2.74374e-07 -4.44995 
80 1 5.05343 33.7584 1.76025 3.66375e-06 -4.45012 
81 1 4.19924 37.1751 1.76025 1.64608e-07 -4.44998 
82 1 6.33244 35.8939 1.76025 3.59094e-07 -4.45003 
89 1 5.90521 37.6022 0.00117608 1.56852e-07 -4.45003 
84 1 1.21449 34.6131 0.00117577 2.36427e-06 -4.44989 
85 1 3.34728 33.3312 0.00117591 4.76413e-06 -4.45009 
86 1 4.62636 35.4666 0.00117584 1.33445e-06 -4.45004 
87 1 2.49338 36.7482 0.00117607 6.89258e-07 -4.44995 
88 1 6.75966 34.1859 0.00117548 1.14023e-06 -4.44997 
291 1 0.360032 38.0293 0.00117615 2.32899e-07 -4.45001 
90 1 2.06605 38.4564 1.76025 2.22547e-07 -4.44997 
91 1 1.21118 41.873 1.76025 4.33222e-08 -4.45 
92 1 3.34453 40.5918 1.76025 8.0241e-08 -4.44999 
93 1 5.47795 39.3105 1.76025 1.11074e-07 -4.45 
94 1 4.62304 42.7272 1.76025 7.02804e-08 -4.45 
95 1 6.75647 41.446 1.76025 5.64989e-08 -4.45 
96 1 3.77199 38.8834 0.00117629 1.29498e-07 -4.44997 
97 1 1.63863 40.1647 0.00117587 6.62539e-08 -4.44999 
98 1 2.91719 42.3001 0.00117586 2.60709e-07 -4.44999 
99 1 7.18399 39.7376 0.00117613 1.83945e-07 -4.45001 
100 1 5.05056 41.0188 0.00117608 2.28061e-07 -4.45 
101 1 6.32902 43.1543 0.0011756 7.58158e-08 -4.45001 
102 1 2.48968 44.0085 1.76025 2.47761e-08 -4.44998 
103 1 1.63477 47.4254 1.76025 9.8236e-08 -4.45003 
104 1 3.76822 46.144 1.76025 1.93412e-07 -4.44999 
105 1 5.90168 44.8627 1.76025 3.856e-07 -4.45 
106 1 5.04661 48.2796 1.76025 2.84735e-07 -4.44995 
107 1 7.18 46.9983 1.76025 3.05734e-07 -4.45002 
108 1 0.783802 43.5814 0.00117569 1.74086e-07 -4.44999 
109 1 2.06219 45.7169 0.001176 1.03628e-07 -4.45 
110 1 4.19561 44.4357 0.00117582 1.03429e-07 -4.44999 
111 1 5.47402 46.5711 0.0011759 3.59532e-07 -4.44998 
112 1 3.34073 47.8525 0.0011759 1.2054e-07 -4.45 
114 1 6.75258 48.7065 0.00117573 3.19487e-07 -4.44996 
309 1 0.356311 45.2898 1.76025 1.51882e-07 -4.45 
115 1 0.779831 50.8418 1.76025 1.59694e-06 -4.44997 
116 1 2.91339 49.561 1.76025 1.09217e-06 -4.45006 
117 1 2.05855 52.977 1.76025 5.82401e-06 -4.45 
118 1 4.19223 51.6968 1.76025 6.57816e-06 -4.45011 
119 1 6.32513 50.4148 1.76025 2.04774e-06 -4.44989 
120 1 5.47117 53.8328 1.76025 2.65462e-05 -4.45019 
127 1 7.17628 54.2583 0.0011757 3.64385e-05 -4.44951 
122 1 1.20734 49.1337 0.00117569 3.23997e-07 -4.45003 
123 1 4.61933 49.988 0.00117547 5.25975e-07 -4.44997 
124 1 2.48613 51.2693 0.00117565 2.82046e-06 -4.45014 
125 1 3.76529 53.4053 0.00117558 2.77895e-05 -4.45036 
126 1 5.89778 52.1234 0.00117575 3.58776e-06 -4.44987 
328 1 0.352199 52.5497 0.00117607 1.46517e-05 -4.44975 
128 1 1.20251 56.3923 1.76025 0.000344621 -4.44876 
129 1 3.33783 55.1122 1.76025 4.20944e-05 -4.45032 
130 1 2.48043 58.5209 1.76025 0.00295937 -4.44402 
131 1 4.61899 57.2476 1.76025 0.000433562 -4.44998 
132 1 6.75072 55.9694 1.76025 0.000127832 -4.44996 
133 1 5.89821 59.3902 1.76025 0.00659126 -4.45487 
134 1 1.63051 54.6838 0.00117575 9.81052e-05 -4.44939 
135 1 2.90829 56.816 0.00117516 0.000548391 -4.44887 
136 1 0.77747 58.1074 0.00117497 0.0007789 -4.45053 
137 1 5.04555 55.5424 0.00117518 0.000238905 -4.45091 
138 1 6.32697 57.6836 0.00117502 0.00176418 -4.45217 
139 1 4.18455 58.9448 0.00117457 0.00360105 -4.44409 
336 1 0.363936 59.831 1.76025 0.0195541 -4.45632 
141 1 1.65484 62.0405 1.76025 0.535466 -4.31503 
142 1 3.73889 60.6574 1.76025 0.0318234 -4.44007 
143 1 2.90873 64.2695 1.76025 3.5229 -4.40521 
144 1 5.04562 62.7301 1.76025 2.83207 -4.33915 
145 1 7.22178 61.5139 1.76025 0.460284 -4.36624 
146 1 6.7938 63.1073 0.00117455 8.51622 -4.11557 
147 1 2.06139 60.2384 0.00117466 0.026323 -4.42681 
148 1 1.0954 64.2387 0.00117502 8.18751 -4.28617 
149 1 5.4435 61.0669 0.00117412 0.0447869 -4.45132 
150 1 3.2534 62.3973 0.00117441 0.548196 -4.35872 
151 1 4.67415 64.2681 0.00117271 7.50896 -4.07116 
152 1 3.26025 66.1412 0.00117437 0.616515 -4.35099 
153 1 5.05433 65.8032 1.76025 2.86744 -4.33809 
154 1 5.45315 67.4653 0.00117439 0.0410183 -4.45248 
155 1 4.19345 69.5892 0.00117511 0.00299024 -4.44443 
156 1 5.90656 69.1442 1.76025 0.00625578 -4.45485 
157 1 3.74806 67.878 1.76025 0.0302224 -4.44086 
164 1 0.371351 68.705 1.76025 0.0176817 -4.45648 
159 1 1.6617 66.4992 1.76025 0.636574 -4.30046 
163 1 2.4887 70.0142 1.76025 0.00284044 -4.44414 
161 1 2.06871 68.2986 0.00117491 0.0259176 -4.42639 
162 1 0.785247 70.4283 0.00117524 0.000701968 -4.45033 
360 1 6.80629 65.4199 0.00117432 8.66645 -4.11595 
364 1 7.2285 67.0204 1.76025 0.528885 -4.36087 
165 1 6.33488 70.8514 0.00117525 0.0016326 -4.452 
166 1 5.05333 72.9922 0.00117562 0.000229705 -4.45086 
167 1 4.62722 71.2866 1.76025 0.000442922 -4.45003 
168 1 5.47846 74.7018 1.76025 1.86074e-05 -4.45016 
169 1 2.91661 71.7183 0.00117537 0.000452656 -4.44902 
170 1 1.63829 73.8506 0.00117592 8.10132e-05 -4.44946 
171 1 3.34568 73.422 1.76025 4.36892e-05 -4.45035 
172 1 1.2104 72.1426 1.76025 0.000353672 -4.44881 
173 1 3.77251 75.1289 0.00117571 3.1312e-05 -4.45035 
174 1 2.06577 75.5572 1.76025 5.07936e-06 -4.45002 
177 1 0.359073 75.9846 0.00117559 1.31975e-05 -4.44977 
377 1 6.75838 72.5656 1.76025 0.000103493 -4.4499 
378 1 7.18374 74.2764 0.0011758 4.14234e-05 -4.44952 
178 1 5.90434 76.4111 0.00117584 5.22188e-06 -4.44985 
179 1 6.33086 78.1193 1.76025 2.16847e-06 -4.44988 
180 1 2.49233 77.2647 0.00117567 3.84864e-06 -4.45011 
181 1 4.19857 76.8375 1.76025 3.87166e-06 -4.45006 
182 1 4.62476 78.546 0.00117603 4.66681e-07 -4.44994 
183 1 3.34519 80.6812 0.0011763 4.59705e-07 -4.44999 
184 1 5.05127 80.2543 1.76025 7.38575e-07 -4.44997 
185 1 2.91863 78.9728 1.76025 1.50268e-06 -4.45003 
186 1 0.785834 77.6921 1.76025 8.48141e-07 -4.44997 
187 1 1.21247 79.4 0.00117588 7.6476e-07 -4.45004 
189 1 1.63919 81.1083 1.76025 2.27329e-07 -4.45003 
389 1 6.75748 79.8273 0.00117601 6.06509e-07 -4.44999 
392 1 7.18426 81.5354 1.76025 2.07696e-07 -4.45002 
191 1 5.4781 81.9625 0.00117634 2.08169e-07 -4.44998 
192 1 4.19895 84.0978 0.00117617 1.54815e-07 -4.45 
193 1 5.90511 83.6708 1.76025 2.66817e-07 -4.45 
194 1 3.77205 82.3896 1.76025 8.75993e-08 -4.44997 
195 1 6.33191 85.3791 0.00117583 3.7373e-08 -4.45 
196 1 4.62573 85.8061 1.76025 1.91039e-07 -4.45 
197 1 2.06596 82.8165 0.00117636 7.81968e-08 -4.44999 
198 1 0.786825 84.952 0.00117617 2.91429e-07 -4.45 
199 1 2.49284 84.5248 1.76025 3.67819e-07 -4.44999 
200 1 0.359793 83.2436 1.76025 2.50779e-07 -4.45001 
201 1 2.9197 86.2333 0.00117599 1.10737e-07 -4.44999 
202 1 1.21363 86.6603 1.76025 8.52553e-08 -4.45 
203 1 12.7309 2.21237 0.0011759 2.00801e-08 -4.45001 
204 1 12.304 0.504003 1.76025 3.02242e-08 -4.44998 
205 1 13.1578 3.92078 1.76025 3.17866e-07 -4.45002 
206 1 10.5978 0.931101 0.00117587 1.26188e-07 -4.44998 
207 1 9.31877 3.06645 0.00117562 1.88845e-07 -4.44997 
208 1 11.0248 2.63939 1.76025 1.68901e-07 -4.44998 
209 1 8.89162 1.35817 1.76025 7.18606e-07 -4.44999 
210 1 11.4517 4.34783 0.0011757 1.22617e-07 -4.44999 
211 1 9.7458 4.7748 1.76025 4.69635e-07 -4.44996 
215 1 8.03966 5.2018 0.00117527 6.07215e-07 -4.44998 
214 1 7.61262 3.49362 1.76025 8.64794e-08 -4.45 
10 1 14.01 0.0768679 0.00117581 2.51891e-07 -4.45 
11 1 14.4369 1.78531 1.76025 1.24136e-07 -4.45001 
216 1 13.5848 5.62907 0.0011752 4.65009e-07 -4.45004 
217 1 10.1728 6.48337 0.00117499 3.85525e-07 -4.44997 
218 1 11.8786 6.05637 1.76025 1.58664e-06 -4.45005 
219 1 12.3057 7.7647 0.00117487 3.4484e-06 -4.45013 
220 1 11.0263 9.90067 0.00117465 2.71382e-05 -4.45036 
221 1 12.7331 9.47235 1.76025 4.81435e-06 -4.45002 
222 1 10.5997 8.19211 1.76025 5.59171e-06 -4.45008 
227 1 9.3204 10.3281 1.76025 2.5509e-05 -4.45018 
224 1 8.46692 6.91011 1.76025 2.08532e-06 -4.44991 
225 1 8.89401 8.6187 0.00117486 3.93786e-06 -4.44987 
226 1 7.6152 10.7536 0.00117483 3.5187e-05 -4.44952 
22 1 14.4395 9.045 0.00117501 1.57385e-05 -4.44978 
24 1 14.0121 7.33713 1.76025 1.57645e-06 -4.44999 
229 1 13.1608 11.1793 0.0011748 8.53467e-05 -4.44944 
230 1 11.8826 13.3115 0.00117466 0.000487647 -4.44897 
231 1 13.5886 12.8875 1.76025 0.000343103 -4.44878 
232 1 11.4535 11.6077 1.76025 4.14999e-05 -4.45035 
233 1 12.3104 15.0159 1.76025 0.00287452 -4.44408 
234 1 9.74573 12.0377 0.00117446 0.000230858 -4.45088 
235 1 8.46413 14.1788 0.00117451 0.00169334 -4.45207 
236 1 10.1719 13.7432 1.76025 0.000442416 -4.45003 
237 1 8.04061 12.4646 1.76025 0.000115435 -4.4499 
238 1 10.6058 15.4405 0.00117447 0.00317379 -4.44431 
239 1 8.89242 15.8857 1.76025 0.006406 -4.45486 
38 1 14.0136 14.602 0.00117457 0.000727288 -4.45039 
39 1 14.4273 16.3253 1.76025 0.0183573 -4.45643 
242 1 12.7299 16.732 0.00117448 0.026031 -4.42649 
243 1 13.7001 20.773 0.00117504 8.16461 -4.28689 
244 1 13.1366 18.5322 1.76025 0.603093 -4.30499 
245 1 9.34612 17.5636 0.00117412 0.0423128 -4.45208 
246 1 11.0511 17.152 1.76025 0.0308217 -4.44061 
247 1 11.538 18.8896 0.00117442 0.594506 -4.35347 
248 1 10.1217 20.7614 0.0011735 7.50767 -4.07075 
249 1 11.8868 20.7608 1.76025 3.5151 -4.4055 
250 1 9.74429 19.2257 1.76025 2.85649 -4.33836 
251 1 7.56978 18.0091 1.76025 0.506936 -4.36233 
252 1 7.99354 19.607 0.00117445 8.61851 -4.11552 
253 1 7.99819 21.9193 0.00117469 8.56048 -4.11545 
254 1 9.74744 22.2982 1.76025 2.84255 -4.33884 
255 1 8.89413 25.6378 1.76025 0.00657865 -4.45489 
256 1 11.0538 24.3712 1.76025 0.0315044 -4.44028 
257 1 13.1388 22.9892 1.76025 0.562899 -4.31074 
258 1 12.3118 26.5074 1.76025 0.0029685 -4.44404 
259 1 14.4288 25.1975 1.76025 0.0191736 -4.45641 
260 1 11.5403 22.6325 0.00117462 0.567993 -4.35636 
261 1 9.34907 23.9609 0.00117456 0.0438889 -4.45158 
262 1 10.6077 26.0832 0.00117517 0.00342502 -4.44416 
265 1 14.0147 26.9211 0.00117539 0.00074093 -4.45048 
264 1 12.7317 24.7906 0.00117513 0.0261933 -4.42663 
56 1 7.57155 23.5143 1.76025 0.479889 -4.36457 
266 1 8.04078 29.0587 1.76025 0.000118481 -4.44995 
267 1 10.1727 27.7802 1.76025 0.000456941 -4.45 
268 1 9.31969 31.1952 1.76025 2.21928e-05 -4.45019 
269 1 11.4532 29.9156 1.76025 4.52317e-05 -4.45034 
270 1 13.5891 28.636 1.76025 0.000372913 -4.44877 
271 1 12.732 32.0508 1.76025 6.45184e-06 -4.45002 
278 1 14.4385 32.4782 0.00117555 1.43627e-05 -4.44975 
273 1 8.46499 27.3445 0.0011754 0.00178347 -4.45215 
274 1 9.74564 29.4856 0.00117574 0.000245948 -4.45091 
275 1 11.8832 28.212 0.00117561 0.000517471 -4.44891 
276 1 13.1605 30.3441 0.00117605 9.13222e-05 -4.44942 
277 1 11.0255 31.6225 0.0011758 3.2142e-05 -4.45038 
76 1 7.61463 30.7699 0.00117577 4.13813e-05 -4.4495 
279 1 8.46578 34.6131 1.76025 2.35868e-06 -4.44989 
280 1 10.5986 33.3312 1.76025 4.75824e-06 -4.45009 
281 1 9.74467 36.7482 1.76025 6.92999e-07 -4.44995 
282 1 11.8777 35.4666 1.76025 1.33735e-06 -4.45004 
283 1 14.011 34.1859 1.76025 1.13984e-06 -4.44997 
284 1 13.1565 37.6022 1.76025 1.60532e-07 -4.45003 
285 1 8.89299 32.9046 0.00117565 3.90745e-06 -4.44986 
286 1 8.03857 36.3212 0.00117584 5.56543e-07 -4.44998 
287 1 12.3047 33.7584 0.00117545 3.67318e-06 -4.45012 
288 1 10.1717 35.0398 0.00117584 2.73818e-07 -4.44995 
289 1 11.4505 37.1751 0.0011762 1.63738e-07 -4.44998 
290 1 13.5837 35.8939 0.00117587 3.6139e-07 -4.45004 
83 1 7.61132 38.0293 1.76025 2.32924e-07 -4.45001 
292 1 8.88991 40.1647 1.76025 6.5002e-08 -4.44999 
293 1 11.0233 38.8834 1.76025 1.31476e-07 -4.44997 
294 1 10.1685 42.3001 1.76025 2.63266e-07 -4.44999 
295 1 12.3019 41.0188 1.76025 2.25658e-07 -4.45 
296 1 14.4353 39.7376 1.76025 1.85705e-07 -4.45001 
297 1 13.5803 43.1543 1.76025 7.8565e-08 -4.45001 
298 1 9.31734 38.4564 0.00117603 2.19483e-07 -4.44997 
299 1 10.5958 40.5918 0.00117601 7.8723e-08 -4.44999 
300 1 8.46246 41.873 0.00117569 4.40255e-08 -4.45 
301 1 12.7292 39.3105 0.00117619 1.10263e-07 -4.45 
302 1 14.0078 41.446 0.00117597 5.67444e-08 -4.45 
303 1 11.8743 42.7272 0.00117586 7.04119e-08 -4.45 
304 1 8.03509 43.5814 1.76025 1.72166e-07 -4.44999 
305 1 9.31348 45.7169 1.76025 1.05372e-07 -4.45 
306 1 11.4469 44.4357 1.76025 1.03712e-07 -4.44999 
307 1 10.592 47.8525 1.76025 1.2168e-07 -4.45 
308 1 12.7253 46.5711 1.76025 3.69393e-07 -4.44998 
316 1 14.4313 46.9983 0.00117595 3.02677e-07 -4.45002 
310 1 14.0039 48.7065 1.76025 3.20179e-07 -4.44996 
311 1 9.74097 44.0085 0.0011757 2.52544e-08 -4.44998 
312 1 8.88606 47.4254 0.00117582 9.8103e-08 -4.45003 
313 1 13.153 44.8627 0.00117587 3.79261e-07 -4.45 
314 1 11.0195 46.144 0.00117602 1.97223e-07 -4.44999 
315 1 12.2979 48.2796 0.00117586 2.8472e-07 -4.44995 
113 1 7.6076 45.2898 0.00117576 1.49381e-07 -4.45 
317 1 8.45863 49.1337 1.76025 3.21514e-07 -4.45003 
318 1 9.73742 51.2693 1.76025 2.81876e-06 -4.45014 
319 1 11.8706 49.988 1.76025 5.2612e-07 -4.44997 
320 1 11.0166 53.4053 1.76025 2.77826e-05 -4.45036 
321 1 13.1491 52.1234 1.76025 3.60322e-06 -4.44987 
322 1 14.4276 54.2583 1.76025 3.6466e-05 -4.44951 
323 1 8.03112 50.8418 0.0011756 1.60316e-06 -4.44997 
324 1 10.1647 49.561 0.00117553 1.09189e-06 -4.45006 
325 1 11.4435 51.6968 0.0011755 6.57268e-06 -4.45011 
326 1 9.30984 52.977 0.00117573 5.81665e-06 -4.45001 
327 1 13.5764 50.4148 0.00117602 2.05164e-06 -4.44989 
329 1 12.7225 53.8328 0.00117563 2.65376e-05 -4.45019 
121 1 7.60349 52.5497 1.76025 1.4665e-05 -4.44975 
330 1 8.8818 54.6838 1.76025 9.80389e-05 -4.44939 
331 1 8.02876 58.1074 1.76025 0.000778807 -4.45053 
332 1 10.1596 56.816 1.76025 0.000548317 -4.44887 
333 1 12.2968 55.5424 1.76025 0.000238856 -4.45091 
334 1 11.4358 58.9448 1.76025 0.00360125 -4.44409 
335 1 13.5783 57.6836 1.76025 0.0017644 -4.45217 
342 1 13.1495 59.3902 0.00117464 0.0065915 -4.45487 
337 1 10.5891 55.1122 0.00117545 4.21016e-05 -4.45032 
338 1 8.4538 56.3923 0.00117548 0.000344601 -4.44876 
339 1 9.73171 58.5209 0.00117479 0.00295914 -4.44402 
340 1 14.002 55.9694 0.00117564 0.00012786 -4.44996 
341 1 11.8703 57.2476 0.00117498 0.000433649 -4.44998 
140 1 7.61523 59.831 0.00117491 0.0195535 -4.45632 
343 1 9.31268 60.2384 1.76025 0.0263229 -4.42681 
344 1 8.3467 64.2387 1.76025 8.18743 -4.28617 
345 1 10.5047 62.3973 1.76025 0.548196 -4.35872 
346 1 12.6948 61.0669 1.76025 0.0447883 -4.45132 
347 1 11.9254 64.2681 1.76025 7.50895 -4.07116 
348 1 14.0451 63.1073 1.76025 8.51624 -4.11557 
349 1 8.90613 62.0405 0.00117468 0.535458 -4.31503 
350 1 10.9902 60.6574 0.0011746 0.0318239 -4.44007 
351 1 12.2969 62.7301 0.00117316 2.83207 -4.33915 
352 1 10.16 64.2695 0.00117448 3.52286 -4.40521 
353 1 14.4731 61.5139 0.00117497 0.46029 -4.36624 
354 1 12.3056 65.8032 0.00117322 2.86746 -4.33809 
355 1 10.9993 67.878 0.00117459 0.0302229 -4.44086 
356 1 12.7044 67.4653 1.76025 0.0410194 -4.45248 
357 1 10.5115 66.1412 1.76025 0.616523 -4.35099 
358 1 13.1578 69.1442 0.00117485 0.00625623 -4.45485 
359 1 11.4447 69.5892 1.76025 0.00299031 -4.44443 
366 1 8.03654 70.4283 1.76025 0.000701973 -4.45033 
361 1 8.91299 66.4992 0.00117453 0.63657 -4.30046 
362 1 7.62264 68.705 0.00117501 0.0176814 -4.45648 
363 1 9.32 68.2986 1.76025 0.0259178 -4.42639 
365 1 9.73999 70.0142 0.00117527 0.00284041 -4.44414 
158 1 14.4798 67.0204 0.0011745 0.528886 -4.36087 
160 1 14.0576 65.4199 1.76025 8.66645 -4.11595 
367 1 11.8785 71.2866 0.00117536 0.000443023 -4.45003 
368 1 13.5862 70.8514 1.76025 0.00163268 -4.452 
369 1 12.7298 74.7018 0.00117593 1.85764e-05 -4.45017 
370 1 12.3046 72.9922 1.76025 0.000229634 -4.45086 
371 1 8.46169 72.1426 0.00117566 0.000353611 -4.44881 
372 1 10.1679 71.7183 1.76025 0.00045258 -4.44902 
373 1 10.597 73.422 0.00117566 4.37018e-05 -4.45035 
374 1 9.31706 75.5572 0.00117577 5.07689e-06 -4.45002 
375 1 11.0238 75.1289 1.76025 3.13068e-05 -4.45035 
376 1 8.88958 73.8506 1.76025 8.10159e-05 -4.44946 
379 1 7.61036 75.9846 1.76025 1.32071e-05 -4.44977 
175 1 14.0097 72.5656 0.00117568 0.000103511 -4.4499 
176 1 14.435 74.2764 1.76025 4.14243e-05 -4.44952 
380 1 13.5821 78.1193 0.00117584 2.16858e-06 -4.44988 
381 1 13.1556 76.4111 1.76025 5.23034e-06 -4.44985 
382 1 11.4499 76.8375 0.00117602 3.8659e-06 -4.45006 
383 1 10.1699 78.9728 0.00117568 1.50445e-06 -4.45003 
384 1 11.8761 78.546 1.76025 4.65337e-07 -4.44994 
385 1 9.74362 77.2647 1.76025 3.83688e-06 -4.45011 
386 1 12.3026 80.2543 0.00117618 7.43538e-07 -4.44997 
387 1 10.5965 80.6812 1.76025 4.56786e-07 -4.44999 
388 1 8.03712 77.6921 0.00117561 8.49459e-07 -4.44997 
391 1 8.89048 81.1083 0.00117617 2.2412e-07 -4.45003 
390 1 8.46376 79.4 1.76025 7.63661e-07 -4.45004 
188 1 14.4356 81.5354 0.0011762 2.08148e-07 -4.45002 
190 1 14.0088 79.8273 1.76025 6.01649e-07 -4.44999 
393 1 11.0233 82.3896 0.00117621 8.50541e-08 -4.44997 
394 1 12.7294 81.9625 1.76025 2.09453e-07 -4.44998 
395 1 13.1564 83.6708 0.00117633 2.63199e-07 -4.45 
396 1 11.877 85.8061 0.00117607 1.93262e-07 -4.44999 
397 1 13.5832 85.3791 1.76025 3.81542e-08 -4.45 
398 1 11.4502 84.0978 1.76025 1.53139e-07 -4.45 
399 1 7.61108 83.2436 0.00117633 2.50012e-07 -4.45001 
400 1 9.31725 82.8165 1.76025 7.78695e-08 -4.44999 
401 1 9.74413 84.5248 0.00117626 3.6874e-07 -4.44999 
402 1 8.46491 86.6603 0.00117581 8.22326e-08 -4.45 
403 1 10.171 86.2333 1.76025 1.10861e-07 -4.44999 
404 1 8.03811 84.952 1.76025 2.84756e-07 -4.45 
