ITEM: TIMESTEP
152
ITEM: NUMBER OF ATOMS
1616
ITEM: BOX BOUNDS pp pp pp
4.9214505192411500e-03 2.9009990037567295e+01
3.4390493905772770e-02 8.7044600319139221e+01
4.3647172755999057e-04 7.0367126080976776e+00
ITEM: ATOMS id type x y z c_csym c_PE 
1 1 5.05206 0.503978 0.00118586 7.58729e-09 -4.44999 
2 1 5.90643 3.92077 0.00118586 1.36109e-07 -4.45001 
3 1 5.47926 2.21236 1.76025 7.16732e-09 -4.44999 
4 1 1.64002 1.35817 0.00118586 5.83105e-09 -4.45 
5 1 3.34604 0.93106 1.76025 6.55412e-09 -4.44999 
6 1 3.77327 2.63941 0.00118586 4.16415e-08 -4.44998 
7 1 2.49451 4.77479 0.00118586 3.06895e-07 -4.44996 
8 1 4.20046 4.34782 1.76025 5.00336e-08 -4.44999 
9 1 2.06725 3.06648 1.76025 3.72781e-08 -4.44998 
13 1 0.788467 5.20187 1.76025 1.89629e-07 -4.44998 
12 1 0.3612 3.49362 0.00118586 4.76018e-08 -4.45001 
212 1 6.75806 0.0769041 1.76025 5.3138e-10 -4.44999 
213 1 7.18526 1.78528 0.00118586 2.23757e-08 -4.45 
809 1 5.05206 0.503978 3.51932 7.58729e-09 -4.44999 
810 1 5.90643 3.92077 3.51932 1.36109e-07 -4.45001 
811 1 5.47926 2.21236 5.27839 7.16732e-09 -4.44999 
812 1 1.64002 1.35817 3.51932 5.83105e-09 -4.45 
813 1 3.34604 0.93106 5.27839 6.55412e-09 -4.44999 
814 1 3.77327 2.63941 3.51932 4.16415e-08 -4.44998 
815 1 2.49451 4.77479 3.51932 3.06895e-07 -4.44996 
816 1 4.20046 4.34782 5.27839 5.00336e-08 -4.44999 
817 1 2.06725 3.06648 5.27839 3.72781e-08 -4.44998 
821 1 0.788467 5.20187 5.27839 1.89629e-07 -4.44998 
820 1 0.3612 3.49362 3.51932 4.76018e-08 -4.45001 
1020 1 6.75806 0.0769041 5.27839 5.3138e-10 -4.44999 
1021 1 7.18526 1.78528 3.51932 2.23757e-08 -4.45 
14 1 6.33362 5.62912 1.76025 4.36872e-07 -4.45004 
15 1 4.62758 6.05633 0.00118586 8.08358e-07 -4.45004 
16 1 3.34866 8.19206 0.00118586 4.41024e-06 -4.45009 
17 1 5.05467 7.76474 1.76025 3.82995e-06 -4.45012 
18 1 2.92169 6.48326 1.76025 4.25948e-07 -4.44996 
19 1 5.4821 9.47247 0.00118586 5.28457e-06 -4.45001 
20 1 3.77549 9.90079 1.76025 3.09865e-05 -4.45037 
21 1 1.21581 6.91007 0.00118586 2.20526e-06 -4.4499 
26 1 0.364636 10.7536 1.76025 3.95828e-05 -4.44951 
23 1 1.64303 8.61862 1.76025 4.12968e-06 -4.44987 
25 1 2.06966 10.3281 0.00118586 2.22252e-05 -4.45019 
223 1 6.76095 7.3372 0.00118586 9.37974e-07 -4.44998 
228 1 7.18853 9.04504 1.76025 1.46238e-05 -4.44976 
822 1 6.33362 5.62912 5.27839 4.36872e-07 -4.45004 
823 1 4.62758 6.05633 3.51932 8.08358e-07 -4.45004 
824 1 3.34866 8.19206 3.51932 4.41024e-06 -4.45009 
825 1 5.05467 7.76474 5.27839 3.82995e-06 -4.45012 
826 1 2.92169 6.48326 5.27839 4.25948e-07 -4.44996 
827 1 5.4821 9.47247 3.51932 5.28457e-06 -4.45001 
828 1 3.77549 9.90079 5.27839 3.09865e-05 -4.45037 
829 1 1.21581 6.91007 3.51932 2.20526e-06 -4.4499 
834 1 0.364636 10.7536 5.27839 3.95828e-05 -4.44951 
831 1 1.64303 8.61862 5.27839 4.12968e-06 -4.44987 
833 1 2.06966 10.3281 3.51932 2.22252e-05 -4.45019 
1031 1 6.76095 7.3372 3.51932 9.37974e-07 -4.44998 
1036 1 7.18853 9.04504 5.27839 1.46238e-05 -4.44976 
27 1 4.20307 11.6078 0.00118586 4.36212e-05 -4.45034 
28 1 5.91036 11.1793 1.76025 9.0778e-05 -4.44943 
29 1 6.33873 12.8876 0.00118586 0.000353985 -4.44879 
30 1 5.06119 15.0163 0.00118586 0.00290868 -4.44407 
31 1 4.63284 13.3116 1.76025 0.000507736 -4.44894 
32 1 0.790559 12.4648 0.00118586 0.000115704 -4.44993 
33 1 2.4955 12.0379 1.76025 0.000242862 -4.45089 
34 1 2.92231 13.7434 0.00118586 0.000439466 -4.45 
35 1 1.64358 15.8859 0.00118586 0.00648042 -4.4549 
36 1 3.3569 15.4407 1.76025 0.00331014 -4.44424 
37 1 1.21461 14.1791 1.76025 0.00173003 -4.4521 
240 1 6.76424 14.6024 1.76025 0.000737354 -4.45043 
241 1 7.17834 16.326 0.00118586 0.0187878 -4.45645 
835 1 4.20307 11.6078 3.51932 4.36212e-05 -4.45034 
836 1 5.91036 11.1793 5.27839 9.0778e-05 -4.44943 
837 1 6.33873 12.8876 3.51932 0.000353985 -4.44879 
838 1 5.06119 15.0163 3.51932 0.00290868 -4.44407 
839 1 4.63284 13.3116 5.27839 0.000507736 -4.44894 
840 1 0.790559 12.4648 3.51932 0.000115704 -4.44993 
841 1 2.4955 12.0379 5.27839 0.000242862 -4.45089 
842 1 2.92231 13.7434 3.51932 0.000439466 -4.45 
843 1 1.64358 15.8859 3.51932 0.00648042 -4.4549 
844 1 3.3569 15.4407 5.27839 0.00331014 -4.44424 
845 1 1.21461 14.1791 5.27839 0.00173003 -4.4521 
1048 1 6.76424 14.6024 5.27839 0.000737354 -4.45043 
1049 1 7.17834 16.326 3.51932 0.0187878 -4.45645 
40 1 5.88821 18.5338 0.00118586 0.581508 -4.30776 
41 1 5.48107 16.7328 1.76025 0.0262829 -4.42654 
42 1 6.45111 20.7617 1.76025 8.16361 -4.28785 
43 1 3.80283 17.1527 0.00118586 0.0312101 -4.44048 
44 1 2.4961 19.2261 0.00118586 2.84712 -4.33856 
45 1 4.29004 18.8909 1.76025 0.581914 -4.35483 
46 1 2.09809 17.5636 1.76025 0.0434744 -4.45186 
47 1 4.63785 20.7617 0.00118586 3.51997 -4.40581 
48 1 2.87221 20.7617 1.76025 7.50947 -4.07018 
49 1 0.320884 18.0097 0.00118586 0.493005 -4.36355 
50 1 0.746232 19.6059 1.76025 8.59034 -4.11519 
848 1 5.88821 18.5338 3.51932 0.581508 -4.30776 
849 1 5.48107 16.7328 5.27839 0.0262829 -4.42654 
850 1 6.45111 20.7617 5.27839 8.16361 -4.28785 
851 1 3.80283 17.1527 3.51932 0.0312101 -4.44048 
852 1 2.4961 19.2261 3.51932 2.84712 -4.33856 
853 1 4.29004 18.8909 5.27839 0.581914 -4.35483 
854 1 2.09809 17.5636 5.27839 0.0434744 -4.45186 
855 1 4.63785 20.7617 3.51932 3.51997 -4.40581 
856 1 2.87221 20.7617 5.27839 7.50947 -4.07018 
857 1 0.320884 18.0097 3.51932 0.493005 -4.36355 
858 1 0.746232 19.6059 5.27839 8.59034 -4.11519 
51 1 0.746231 21.9176 1.76025 8.59035 -4.11519 
52 1 2.09809 23.9599 1.76025 0.0434742 -4.45186 
53 1 4.29004 22.6325 1.76025 0.581917 -4.35483 
54 1 3.3569 26.0828 1.76025 0.00331011 -4.44424 
55 1 5.48107 24.7907 1.76025 0.0262829 -4.42654 
63 1 5.06119 26.5072 0.00118586 0.00290867 -4.44407 
57 1 6.76424 26.9211 1.76025 0.000737351 -4.45043 
58 1 2.4961 22.2973 0.00118586 2.84712 -4.33856 
59 1 3.80283 24.3708 0.00118586 0.03121 -4.44048 
60 1 1.64358 25.6375 0.00118586 0.0064804 -4.4549 
61 1 5.88821 22.9896 0.00118586 0.581513 -4.30776 
62 1 7.17834 25.1975 0.00118586 0.0187877 -4.45645 
859 1 0.746231 21.9176 5.27839 8.59035 -4.11519 
860 1 2.09809 23.9599 5.27839 0.0434742 -4.45186 
861 1 4.29004 22.6325 5.27839 0.581917 -4.35483 
862 1 3.3569 26.0828 5.27839 0.00331011 -4.44424 
863 1 5.48107 24.7907 5.27839 0.0262829 -4.42654 
871 1 5.06119 26.5072 3.51932 0.00290867 -4.44407 
865 1 6.76424 26.9211 5.27839 0.000737351 -4.45043 
866 1 2.4961 22.2973 3.51932 2.84712 -4.33856 
867 1 3.80283 24.3708 3.51932 0.03121 -4.44048 
868 1 1.64358 25.6375 3.51932 0.0064804 -4.4549 
869 1 5.88821 22.9896 3.51932 0.581513 -4.30776 
870 1 7.17834 25.1975 3.51932 0.0187877 -4.45645 
667 1 0.320884 23.5138 0.00118586 0.493008 -4.36355 
1475 1 0.320884 23.5138 3.51932 0.493008 -4.36355 
64 1 1.21461 27.3444 1.76025 0.00173002 -4.4521 
65 1 2.4955 29.4856 1.76025 0.000242861 -4.45089 
66 1 4.63284 28.2118 1.76025 0.000507731 -4.44894 
67 1 3.77549 31.6227 1.76025 3.09865e-05 -4.45037 
68 1 5.91036 30.3442 1.76025 9.07773e-05 -4.44943 
69 1 7.18853 32.4784 1.76025 1.46237e-05 -4.44976 
70 1 2.92231 27.7801 0.00118586 0.000439465 -4.45 
71 1 0.790558 29.0587 0.00118586 0.000115703 -4.44993 
72 1 2.06966 31.1953 0.00118586 2.22249e-05 -4.45019 
73 1 6.33873 28.6358 0.00118586 0.000353984 -4.44879 
74 1 4.20307 29.9156 0.00118586 4.36212e-05 -4.45034 
75 1 5.4821 32.051 0.00118586 5.28454e-06 -4.45001 
872 1 1.21461 27.3444 5.27839 0.00173002 -4.4521 
873 1 2.4955 29.4856 5.27839 0.000242861 -4.45089 
874 1 4.63284 28.2118 5.27839 0.000507731 -4.44894 
875 1 3.77549 31.6227 5.27839 3.09865e-05 -4.45037 
876 1 5.91036 30.3442 5.27839 9.07773e-05 -4.44943 
877 1 7.18853 32.4784 5.27839 1.46237e-05 -4.44976 
878 1 2.92231 27.7801 3.51932 0.000439465 -4.45 
879 1 0.790558 29.0587 3.51932 0.000115703 -4.44993 
880 1 2.06966 31.1953 3.51932 2.22249e-05 -4.45019 
881 1 6.33873 28.6358 3.51932 0.000353984 -4.44879 
882 1 4.20307 29.9156 3.51932 4.36212e-05 -4.45034 
883 1 5.4821 32.051 3.51932 5.28454e-06 -4.45001 
676 1 0.364635 30.7699 1.76025 3.95829e-05 -4.44951 
1484 1 0.364635 30.7699 5.27839 3.95829e-05 -4.44951 
77 1 1.64303 32.9048 1.76025 4.12971e-06 -4.44987 
78 1 0.788466 36.3216 1.76025 1.89619e-07 -4.44998 
79 1 2.92169 35.0402 1.76025 4.25956e-07 -4.44996 
80 1 5.05467 33.7587 1.76025 3.83e-06 -4.45012 
81 1 4.20046 37.1756 1.76025 5.00344e-08 -4.44999 
82 1 6.33362 35.8943 1.76025 4.36882e-07 -4.45004 
89 1 5.90643 37.6027 0.00118586 1.36102e-07 -4.45001 
84 1 1.21581 34.6134 0.00118586 2.20524e-06 -4.4499 
85 1 3.34866 33.3314 0.00118586 4.41017e-06 -4.45009 
86 1 4.62758 35.4671 0.00118586 8.08335e-07 -4.45004 
87 1 2.49451 36.7487 0.00118586 3.06892e-07 -4.44996 
88 1 6.76095 34.1863 0.00118586 9.37958e-07 -4.44998 
885 1 1.64303 32.9048 5.27839 4.12971e-06 -4.44987 
886 1 0.788466 36.3216 5.27839 1.89619e-07 -4.44998 
887 1 2.92169 35.0402 5.27839 4.25956e-07 -4.44996 
888 1 5.05467 33.7587 5.27839 3.83e-06 -4.45012 
889 1 4.20046 37.1756 5.27839 5.00344e-08 -4.44999 
890 1 6.33362 35.8943 5.27839 4.36882e-07 -4.45004 
897 1 5.90643 37.6027 3.51932 1.36102e-07 -4.45001 
892 1 1.21581 34.6134 3.51932 2.20524e-06 -4.4499 
893 1 3.34866 33.3314 3.51932 4.41017e-06 -4.45009 
894 1 4.62758 35.4671 3.51932 8.08335e-07 -4.45004 
895 1 2.49451 36.7487 3.51932 3.06892e-07 -4.44996 
896 1 6.76095 34.1863 3.51932 9.37958e-07 -4.44998 
695 1 0.361199 38.0298 0.00118586 4.76021e-08 -4.45001 
1503 1 0.361199 38.0298 3.51932 4.76021e-08 -4.45001 
90 1 2.06725 38.457 1.76025 3.7274e-08 -4.44998 
91 1 1.2128 41.8736 1.76025 5.62541e-09 -4.45 
92 1 3.34604 40.5924 1.76025 6.55285e-09 -4.44999 
93 1 5.47926 39.3111 1.76025 7.16717e-09 -4.44999 
94 1 4.62484 42.7278 1.76025 1.8279e-09 -4.44999 
95 1 6.75806 41.4466 1.76025 5.31202e-10 -4.44999 
96 1 3.77327 38.8841 0.00118586 4.16419e-08 -4.44998 
97 1 1.64001 40.1653 0.00118586 5.83093e-09 -4.45 
98 1 2.91882 42.3007 0.00118586 1.82773e-09 -4.44999 
99 1 7.18526 39.7382 0.00118586 2.23723e-08 -4.45 
100 1 5.05206 41.0195 0.00118586 7.58694e-09 -4.44999 
101 1 6.33086 43.1549 0.00118586 5.62565e-09 -4.45 
898 1 2.06725 38.457 5.27839 3.7274e-08 -4.44998 
899 1 1.2128 41.8736 5.27839 5.62541e-09 -4.45 
900 1 3.34604 40.5924 5.27839 6.55285e-09 -4.44999 
901 1 5.47926 39.3111 5.27839 7.16717e-09 -4.44999 
902 1 4.62484 42.7278 5.27839 1.8279e-09 -4.44999 
903 1 6.75806 41.4466 5.27839 5.31203e-10 -4.44999 
904 1 3.77327 38.8841 3.51932 4.16419e-08 -4.44998 
905 1 1.64001 40.1653 3.51932 5.83093e-09 -4.45 
906 1 2.91882 42.3007 3.51932 1.82773e-09 -4.44999 
907 1 7.18526 39.7382 3.51932 2.23723e-08 -4.45 
908 1 5.05206 41.0195 3.51932 7.58694e-09 -4.44999 
909 1 6.33086 43.1549 3.51932 5.62565e-09 -4.45 
102 1 2.4916 44.0091 1.76025 7.58725e-09 -4.44999 
103 1 1.63723 47.4259 1.76025 1.36109e-07 -4.45001 
104 1 3.77039 46.1445 1.76025 4.16436e-08 -4.44998 
105 1 5.90364 44.8633 1.76025 5.83114e-09 -4.45 
106 1 5.04915 48.2799 1.76025 3.06897e-07 -4.44996 
107 1 7.18246 46.9987 1.76025 4.76032e-08 -4.45001 
108 1 0.785598 43.582 0.00118586 5.31327e-10 -4.44999 
109 1 2.0644 45.7175 0.00118586 7.16779e-09 -4.44999 
110 1 4.19762 44.4362 0.00118586 6.55319e-09 -4.44999 
111 1 5.47641 46.5716 0.00118586 3.72753e-08 -4.44998 
112 1 3.3432 47.8529 0.00118586 5.00348e-08 -4.44999 
114 1 6.75519 48.707 0.00118586 1.89626e-07 -4.44998 
910 1 2.4916 44.0091 5.27839 7.58725e-09 -4.44999 
911 1 1.63723 47.4259 5.27839 1.36109e-07 -4.45001 
912 1 3.77039 46.1445 5.27839 4.16436e-08 -4.44998 
913 1 5.90364 44.8633 5.27839 5.83114e-09 -4.45 
914 1 5.04915 48.2799 5.27839 3.06897e-07 -4.44996 
915 1 7.18246 46.9987 5.27839 4.76032e-08 -4.45001 
916 1 0.785598 43.582 3.51932 5.31327e-10 -4.44999 
917 1 2.0644 45.7175 3.51932 7.16779e-09 -4.44999 
918 1 4.19762 44.4362 3.51932 6.55319e-09 -4.44999 
919 1 5.47641 46.5716 3.51932 3.72753e-08 -4.44998 
920 1 3.3432 47.8529 3.51932 5.00348e-08 -4.44999 
922 1 6.75519 48.707 3.51932 1.89626e-07 -4.44998 
713 1 0.358401 45.2904 1.76025 2.23742e-08 -4.45 
1521 1 0.358401 45.2904 5.27839 2.23742e-08 -4.45 
115 1 0.782711 50.8423 1.76025 9.3797e-07 -4.44998 
116 1 2.91608 49.5614 1.76025 8.08355e-07 -4.45004 
117 1 2.06156 52.9776 1.76025 5.28457e-06 -4.45001 
118 1 4.195 51.6972 1.76025 4.41025e-06 -4.45009 
119 1 6.32785 50.4152 1.76025 2.20527e-06 -4.4499 
120 1 5.47399 53.8332 1.76025 2.22252e-05 -4.45019 
127 1 7.17902 54.2587 0.00118586 3.95828e-05 -4.44951 
122 1 1.21004 49.1342 0.00118586 4.36882e-07 -4.45004 
123 1 4.62196 49.9884 0.00118586 4.25951e-07 -4.44996 
124 1 2.48899 51.2698 0.00118586 3.82997e-06 -4.45012 
125 1 3.76817 53.4059 0.00118586 3.09865e-05 -4.45037 
126 1 5.90063 52.1237 0.00118586 4.12967e-06 -4.44987 
923 1 0.782711 50.8423 5.27839 9.3797e-07 -4.44998 
924 1 2.91608 49.5614 5.27839 8.08355e-07 -4.45004 
925 1 2.06156 52.9776 5.27839 5.28457e-06 -4.45001 
926 1 4.195 51.6972 5.27839 4.41025e-06 -4.45009 
927 1 6.32785 50.4152 5.27839 2.20527e-06 -4.4499 
928 1 5.47399 53.8332 5.27839 2.22252e-05 -4.45019 
935 1 7.17902 54.2587 3.51932 3.95828e-05 -4.44951 
930 1 1.21004 49.1342 3.51932 4.36882e-07 -4.45004 
931 1 4.62196 49.9884 3.51932 4.25951e-07 -4.44996 
932 1 2.48899 51.2698 3.51932 3.82997e-06 -4.45012 
933 1 3.76817 53.4059 3.51932 3.09865e-05 -4.45037 
934 1 5.90063 52.1237 3.51932 4.12967e-06 -4.44987 
732 1 0.355132 52.5501 0.00118586 1.46238e-05 -4.44976 
1540 1 0.355132 52.5501 3.51932 1.46238e-05 -4.44976 
128 1 1.20493 56.3927 1.76025 0.000353985 -4.44879 
129 1 3.34059 55.1129 1.76025 4.36212e-05 -4.45034 
130 1 2.48247 58.5214 1.76025 0.00290868 -4.44407 
131 1 4.62135 57.2485 1.76025 0.000439466 -4.45 
132 1 6.7531 55.9699 1.76025 0.000115704 -4.44993 
133 1 5.90008 59.391 1.76025 0.00648042 -4.4549 
134 1 1.6333 54.6844 0.00118586 9.0778e-05 -4.44943 
135 1 2.91082 56.8167 0.00118586 0.000507736 -4.44894 
136 1 0.779419 58.1075 0.00118586 0.000737355 -4.45043 
137 1 5.04816 55.543 0.00118586 0.000242862 -4.45089 
138 1 6.32905 57.6842 0.00118586 0.00173003 -4.4521 
139 1 4.18676 58.9458 0.00118586 0.00331014 -4.44424 
936 1 1.20493 56.3927 5.27839 0.000353985 -4.44879 
937 1 3.34059 55.1129 5.27839 4.36212e-05 -4.45034 
938 1 2.48247 58.5214 5.27839 0.00290868 -4.44407 
939 1 4.62135 57.2485 5.27839 0.000439466 -4.45 
940 1 6.7531 55.9699 5.27839 0.000115704 -4.44993 
941 1 5.90008 59.391 5.27839 0.00648042 -4.4549 
942 1 1.6333 54.6844 3.51932 9.0778e-05 -4.44943 
943 1 2.91082 56.8167 3.51932 0.000507736 -4.44894 
944 1 0.779419 58.1075 3.51932 0.000737355 -4.45043 
945 1 5.04816 55.543 3.51932 0.000242862 -4.45089 
946 1 6.32905 57.6842 3.51932 0.00173003 -4.4521 
947 1 4.18676 58.9458 3.51932 0.00331014 -4.44424 
740 1 0.365317 59.8311 1.76025 0.0187878 -4.45645 
1548 1 0.365317 59.8311 5.27839 0.0187878 -4.45645 
141 1 1.65545 62.039 1.76025 0.581508 -4.30776 
142 1 3.74083 60.6578 1.76025 0.0312101 -4.44048 
143 1 2.90581 64.2668 1.76025 3.51997 -4.40581 
144 1 5.04756 62.7312 1.76025 2.84712 -4.33856 
145 1 7.22277 61.5148 1.76025 0.493005 -4.36355 
146 1 6.79743 63.111 0.00118586 8.59034 -4.11519 
147 1 2.06259 60.2379 0.00118586 0.0262829 -4.42654 
148 1 1.09255 64.2668 0.00118586 8.16361 -4.28785 
149 1 5.44557 61.0687 0.00118586 0.0434744 -4.45186 
150 1 3.25362 62.396 0.00118586 0.581914 -4.35483 
151 1 4.67145 64.2668 0.00118586 7.50947 -4.07018 
949 1 1.65545 62.039 5.27839 0.581508 -4.30776 
950 1 3.74083 60.6578 5.27839 0.0312101 -4.44048 
951 1 2.90581 64.2668 5.27839 3.51997 -4.40581 
952 1 5.04756 62.7312 5.27839 2.84712 -4.33856 
953 1 7.22277 61.5148 5.27839 0.493005 -4.36355 
954 1 6.79743 63.111 3.51932 8.59034 -4.11519 
955 1 2.06259 60.2379 3.51932 0.0262829 -4.42654 
956 1 1.09255 64.2668 3.51932 8.16361 -4.28785 
957 1 5.44557 61.0687 3.51932 0.0434744 -4.45186 
958 1 3.25362 62.396 3.51932 0.581914 -4.35483 
959 1 4.67145 64.2668 3.51932 7.50947 -4.07018 
152 1 3.25362 66.1376 0.00118586 0.581917 -4.35483 
153 1 5.04756 65.8024 1.76025 2.84712 -4.33856 
154 1 5.44557 67.465 0.00118586 0.0434742 -4.45186 
155 1 4.18676 69.5879 0.00118586 0.0033101 -4.44424 
156 1 5.90008 69.1426 1.76025 0.0064804 -4.4549 
157 1 3.74083 67.8759 1.76025 0.03121 -4.44048 
164 1 0.365317 68.7026 1.76025 0.0187877 -4.45645 
159 1 1.65545 66.4947 1.76025 0.581513 -4.30776 
163 1 2.48247 70.0123 1.76025 0.00290867 -4.44407 
161 1 2.06259 68.2958 0.00118586 0.0262829 -4.42654 
162 1 0.77942 70.4262 0.00118586 0.000737351 -4.45043 
360 1 6.79743 65.4227 0.00118586 8.59035 -4.11519 
364 1 7.22278 67.0189 1.76025 0.493008 -4.36355 
960 1 3.25362 66.1376 3.51932 0.581917 -4.35483 
961 1 5.04756 65.8024 5.27839 2.84712 -4.33856 
962 1 5.44557 67.465 3.51932 0.0434742 -4.45186 
963 1 4.18676 69.5879 3.51932 0.0033101 -4.44424 
964 1 5.90008 69.1426 5.27839 0.0064804 -4.4549 
965 1 3.74083 67.8759 5.27839 0.03121 -4.44048 
972 1 0.365317 68.7026 5.27839 0.0187877 -4.45645 
967 1 1.65545 66.4947 5.27839 0.581513 -4.30776 
971 1 2.48247 70.0123 5.27839 0.00290867 -4.44407 
969 1 2.06259 68.2958 3.51932 0.0262829 -4.42654 
970 1 0.77942 70.4262 3.51932 0.000737351 -4.45043 
1168 1 6.79743 65.4227 3.51932 8.59035 -4.11519 
1172 1 7.22278 67.0189 5.27839 0.493008 -4.36355 
165 1 6.32905 70.8495 0.00118586 0.00173002 -4.4521 
166 1 5.04816 72.9907 0.00118586 0.000242861 -4.45089 
167 1 4.62135 71.2852 1.76025 0.000439465 -4.45 
168 1 5.474 74.7004 1.76025 2.22249e-05 -4.45019 
169 1 2.91082 71.7169 0.00118586 0.000507731 -4.44894 
170 1 1.6333 73.8493 0.00118586 9.07773e-05 -4.44943 
171 1 3.34059 73.4207 1.76025 4.36211e-05 -4.45034 
172 1 1.20493 72.1409 1.76025 0.000353984 -4.44879 
173 1 3.76817 75.1278 0.00118586 3.09864e-05 -4.45037 
174 1 2.06156 75.5561 1.76025 5.28455e-06 -4.45001 
177 1 0.355132 75.9835 0.00118586 1.46237e-05 -4.44976 
377 1 6.7531 72.5638 1.76025 0.000115703 -4.44993 
378 1 7.17902 74.275 0.00118586 3.95828e-05 -4.44951 
973 1 6.32905 70.8495 3.51932 0.00173002 -4.4521 
974 1 5.04816 72.9907 3.51932 0.000242861 -4.45089 
975 1 4.62135 71.2852 5.27839 0.000439465 -4.45 
976 1 5.474 74.7004 5.27839 2.22249e-05 -4.45019 
977 1 2.91082 71.7169 3.51932 0.000507731 -4.44894 
978 1 1.6333 73.8493 3.51932 9.07773e-05 -4.44943 
979 1 3.34059 73.4207 5.27839 4.36211e-05 -4.45034 
980 1 1.20493 72.1409 5.27839 0.000353984 -4.44879 
981 1 3.76817 75.1278 3.51932 3.09864e-05 -4.45037 
982 1 2.06156 75.5561 5.27839 5.28455e-06 -4.45001 
985 1 0.355132 75.9835 3.51932 1.46237e-05 -4.44976 
1185 1 6.7531 72.5638 5.27839 0.000115703 -4.44993 
1186 1 7.17902 74.275 3.51932 3.95828e-05 -4.44951 
178 1 5.90063 76.4099 0.00118586 4.12967e-06 -4.44987 
179 1 6.32785 78.1185 1.76025 2.20526e-06 -4.4499 
180 1 2.48899 77.2638 0.00118586 3.82997e-06 -4.45012 
181 1 4.195 76.8365 1.76025 4.41021e-06 -4.45009 
182 1 4.62197 78.5453 0.00118586 4.25947e-07 -4.44996 
183 1 3.3432 80.6807 0.00118586 5.00335e-08 -4.44999 
184 1 5.04915 80.2538 1.76025 3.06895e-07 -4.44996 
185 1 2.91608 78.9722 1.76025 8.08349e-07 -4.45004 
186 1 0.782711 77.6914 1.76025 9.37966e-07 -4.44998 
187 1 1.21004 79.3994 0.00118586 4.36883e-07 -4.45004 
189 1 1.63723 81.1078 1.76025 1.36108e-07 -4.45001 
389 1 6.75519 79.8267 0.00118586 1.89625e-07 -4.44998 
392 1 7.18246 81.5349 1.76025 4.76038e-08 -4.45001 
986 1 5.90063 76.4099 3.51932 4.12967e-06 -4.44987 
987 1 6.32785 78.1185 5.27839 2.20526e-06 -4.4499 
988 1 2.48899 77.2638 3.51932 3.82997e-06 -4.45012 
989 1 4.195 76.8365 5.27839 4.41021e-06 -4.45009 
990 1 4.62197 78.5453 3.51932 4.25947e-07 -4.44996 
991 1 3.3432 80.6807 3.51932 5.00335e-08 -4.44999 
992 1 5.04915 80.2538 5.27839 3.06895e-07 -4.44996 
993 1 2.91608 78.9722 5.27839 8.08349e-07 -4.45004 
994 1 0.782711 77.6914 5.27839 9.37966e-07 -4.44998 
995 1 1.21004 79.3994 3.51932 4.36883e-07 -4.45004 
997 1 1.63723 81.1078 5.27839 1.36108e-07 -4.45001 
1197 1 6.75519 79.8267 3.51932 1.89625e-07 -4.44998 
1200 1 7.18246 81.5349 5.27839 4.76038e-08 -4.45001 
191 1 5.47641 81.9621 0.00118586 3.72768e-08 -4.44998 
192 1 4.19762 84.0975 0.00118586 6.55318e-09 -4.44999 
193 1 5.90364 83.6704 1.76025 5.83203e-09 -4.45 
194 1 3.77039 82.3892 1.76025 4.16421e-08 -4.44998 
195 1 6.33086 85.3787 0.00118586 5.62623e-09 -4.45 
196 1 4.62484 85.8058 1.76025 1.82835e-09 -4.44999 
197 1 2.0644 82.8162 0.00118586 7.16679e-09 -4.44999 
198 1 0.785598 84.9517 0.00118586 5.31082e-10 -4.44999 
199 1 2.4916 84.5246 1.76025 7.58772e-09 -4.44999 
200 1 0.358402 83.2433 1.76025 2.23755e-08 -4.45 
201 1 2.91882 86.2329 0.00118586 1.82764e-09 -4.44999 
202 1 1.2128 86.66 1.76025 5.62634e-09 -4.45 
999 1 5.47641 81.9621 3.51932 3.72768e-08 -4.44998 
1000 1 4.19762 84.0975 3.51932 6.55318e-09 -4.44999 
1001 1 5.90364 83.6704 5.27839 5.83203e-09 -4.45 
1002 1 3.77039 82.3892 5.27839 4.16421e-08 -4.44998 
1003 1 6.33086 85.3787 3.51932 5.62623e-09 -4.45 
1004 1 4.62484 85.8058 5.27839 1.82835e-09 -4.44999 
1005 1 2.0644 82.8162 3.51932 7.16679e-09 -4.44999 
1006 1 0.785598 84.9517 3.51932 5.31082e-10 -4.44999 
1007 1 2.4916 84.5246 5.27839 7.58772e-09 -4.44999 
1008 1 0.358402 83.2433 5.27839 2.23755e-08 -4.45 
1009 1 2.91882 86.2329 3.51932 1.82764e-09 -4.44999 
1010 1 1.2128 86.66 5.27839 5.62634e-09 -4.45 
203 1 12.7305 2.21236 0.00118586 7.16732e-09 -4.44999 
204 1 12.3033 0.503978 1.76025 7.58729e-09 -4.44999 
205 1 13.1577 3.92077 1.76025 1.3611e-07 -4.45001 
206 1 10.5973 0.93106 0.00118586 6.55422e-09 -4.44999 
207 1 9.31852 3.06648 0.00118586 3.72783e-08 -4.44998 
208 1 11.0245 2.63941 1.76025 4.16416e-08 -4.44998 
209 1 8.89128 1.35817 1.76025 5.831e-09 -4.45 
210 1 11.4517 4.34782 0.00118586 5.00336e-08 -4.44999 
211 1 9.74577 4.77479 1.76025 3.06895e-07 -4.44996 
215 1 8.03973 5.20187 0.00118586 1.8963e-07 -4.44998 
214 1 7.61247 3.49362 1.76025 4.76016e-08 -4.45001 
1011 1 12.7305 2.21236 3.51932 7.16732e-09 -4.44999 
1012 1 12.3033 0.503978 5.27839 7.58729e-09 -4.44999 
1013 1 13.1577 3.92077 5.27839 1.3611e-07 -4.45001 
1014 1 10.5973 0.93106 3.51932 6.55422e-09 -4.44999 
1015 1 9.31852 3.06648 3.51932 3.72783e-08 -4.44998 
1016 1 11.0245 2.63941 5.27839 4.16416e-08 -4.44998 
1017 1 8.89128 1.35817 5.27839 5.831e-09 -4.45 
1018 1 11.4517 4.34782 3.51932 5.00336e-08 -4.44999 
1019 1 9.74577 4.77479 5.27839 3.06895e-07 -4.44996 
1023 1 8.03973 5.20187 3.51932 1.8963e-07 -4.44998 
1022 1 7.61247 3.49362 5.27839 4.76016e-08 -4.45001 
414 1 14.0093 0.0769041 0.00118586 5.31384e-10 -4.44999 
415 1 14.4365 1.78528 1.76025 2.23759e-08 -4.45 
1222 1 14.0093 0.0769041 3.51932 5.31384e-10 -4.44999 
1223 1 14.4365 1.78528 5.27839 2.23759e-08 -4.45 
216 1 13.5849 5.62912 0.00118586 4.36873e-07 -4.45004 
217 1 10.173 6.48326 0.00118586 4.25947e-07 -4.44996 
218 1 11.8788 6.05633 1.76025 8.08359e-07 -4.45004 
219 1 12.3059 7.76474 0.00118586 3.82995e-06 -4.45012 
220 1 11.0268 9.90079 0.00118586 3.09865e-05 -4.45037 
221 1 12.7334 9.47247 1.76025 5.28457e-06 -4.45001 
222 1 10.5999 8.19206 1.76025 4.41024e-06 -4.45009 
227 1 9.32093 10.3281 1.76025 2.22252e-05 -4.45019 
224 1 8.46708 6.91007 1.76025 2.20526e-06 -4.4499 
225 1 8.8943 8.61862 0.00118586 4.12968e-06 -4.44987 
226 1 7.6159 10.7536 0.00118586 3.95828e-05 -4.44951 
1024 1 13.5849 5.62912 3.51932 4.36873e-07 -4.45004 
1025 1 10.173 6.48326 3.51932 4.25947e-07 -4.44996 
1026 1 11.8788 6.05633 5.27839 8.08359e-07 -4.45004 
1027 1 12.3059 7.76474 3.51932 3.82995e-06 -4.45012 
1028 1 11.0268 9.90079 3.51932 3.09865e-05 -4.45037 
1029 1 12.7334 9.47247 5.27839 5.28457e-06 -4.45001 
1030 1 10.5999 8.19206 5.27839 4.41024e-06 -4.45009 
1035 1 9.32093 10.3281 5.27839 2.22252e-05 -4.45019 
1032 1 8.46708 6.91007 5.27839 2.20526e-06 -4.4499 
1033 1 8.8943 8.61862 3.51932 4.12968e-06 -4.44987 
1034 1 7.6159 10.7536 3.51932 3.95828e-05 -4.44951 
426 1 14.4398 9.04504 0.00118586 1.46238e-05 -4.44976 
428 1 14.0122 7.3372 1.76025 9.37974e-07 -4.44998 
1234 1 14.4398 9.04504 3.51932 1.46238e-05 -4.44976 
1236 1 14.0122 7.3372 5.27839 9.37974e-07 -4.44998 
229 1 13.1616 11.1793 0.00118586 9.0778e-05 -4.44943 
230 1 11.8841 13.3116 0.00118586 0.000507736 -4.44894 
231 1 13.59 12.8876 1.76025 0.000353985 -4.44879 
232 1 11.4543 11.6078 1.76025 4.36212e-05 -4.45034 
233 1 12.3125 15.0163 1.76025 0.00290868 -4.44407 
234 1 9.74676 12.0379 0.00118586 0.000242862 -4.45089 
235 1 8.46588 14.1791 0.00118586 0.00173003 -4.4521 
236 1 10.1736 13.7434 1.76025 0.000439466 -4.45 
237 1 8.04183 12.4648 1.76025 0.000115704 -4.44993 
238 1 10.6082 15.4407 0.00118586 0.00331014 -4.44424 
239 1 8.89484 15.8859 1.76025 0.00648042 -4.4549 
1037 1 13.1616 11.1793 3.51932 9.0778e-05 -4.44943 
1038 1 11.8841 13.3116 3.51932 0.000507736 -4.44894 
1039 1 13.59 12.8876 5.27839 0.000353985 -4.44879 
1040 1 11.4543 11.6078 5.27839 4.36212e-05 -4.45034 
1041 1 12.3125 15.0163 5.27839 0.00290868 -4.44407 
1042 1 9.74676 12.0379 3.51932 0.000242862 -4.45089 
1043 1 8.46588 14.1791 3.51932 0.00173003 -4.4521 
1044 1 10.1736 13.7434 5.27839 0.000439466 -4.45 
1045 1 8.04183 12.4648 5.27839 0.000115704 -4.44993 
1046 1 10.6082 15.4407 3.51932 0.00331014 -4.44424 
1047 1 8.89484 15.8859 5.27839 0.00648042 -4.4549 
442 1 14.0155 14.6024 0.00118586 0.000737354 -4.45043 
443 1 14.4296 16.326 1.76025 0.0187878 -4.45645 
1250 1 14.0155 14.6024 3.51932 0.000737354 -4.45043 
1251 1 14.4296 16.326 5.27839 0.0187878 -4.45645 
242 1 12.7323 16.7328 0.00118586 0.0262829 -4.42654 
243 1 13.7024 20.7617 0.00118586 8.16361 -4.28785 
244 1 13.1395 18.5338 1.76025 0.581508 -4.30776 
245 1 9.34936 17.5636 0.00118586 0.0434744 -4.45186 
246 1 11.0541 17.1527 1.76025 0.0312101 -4.44048 
247 1 11.5413 18.8909 0.00118586 0.581914 -4.35483 
248 1 10.1235 20.7617 0.00118586 7.50947 -4.07018 
249 1 11.8891 20.7617 1.76025 3.51997 -4.40581 
250 1 9.74737 19.2261 1.76025 2.84712 -4.33856 
251 1 7.57215 18.0097 1.76025 0.493005 -4.36355 
252 1 7.9975 19.6059 0.00118586 8.59034 -4.11519 
1050 1 12.7323 16.7328 3.51932 0.0262829 -4.42654 
1051 1 13.7024 20.7617 3.51932 8.16361 -4.28785 
1052 1 13.1395 18.5338 5.27839 0.581508 -4.30776 
1053 1 9.34936 17.5636 3.51932 0.0434744 -4.45186 
1054 1 11.0541 17.1527 5.27839 0.0312101 -4.44048 
1055 1 11.5413 18.8909 3.51932 0.581914 -4.35483 
1056 1 10.1235 20.7617 3.51932 7.50947 -4.07018 
1057 1 11.8891 20.7617 5.27839 3.51997 -4.40581 
1058 1 9.74737 19.2261 5.27839 2.84712 -4.33856 
1059 1 7.57215 18.0097 5.27839 0.493005 -4.36355 
1060 1 7.9975 19.6059 3.51932 8.59034 -4.11519 
253 1 7.9975 21.9176 0.00118586 8.59035 -4.11519 
254 1 9.74736 22.2973 1.76025 2.84712 -4.33856 
255 1 8.89484 25.6375 1.76025 0.0064804 -4.4549 
256 1 11.0541 24.3708 1.76025 0.03121 -4.44048 
257 1 13.1395 22.9896 1.76025 0.581513 -4.30776 
258 1 12.3125 26.5072 1.76025 0.00290867 -4.44407 
259 1 14.4296 25.1975 1.76025 0.0187877 -4.45645 
260 1 11.5413 22.6325 0.00118586 0.581917 -4.35483 
261 1 9.34935 23.9599 0.00118586 0.0434742 -4.45186 
262 1 10.6082 26.0828 0.00118586 0.00331011 -4.44424 
265 1 14.0155 26.9211 0.00118586 0.000737351 -4.45043 
264 1 12.7323 24.7907 0.00118586 0.0262829 -4.42654 
56 1 7.57215 23.5138 1.76025 0.493008 -4.36355 
1061 1 7.9975 21.9176 3.51932 8.59035 -4.11519 
1062 1 9.74736 22.2973 5.27839 2.84712 -4.33856 
1063 1 8.89484 25.6375 5.27839 0.0064804 -4.4549 
1064 1 11.0541 24.3708 5.27839 0.03121 -4.44048 
1065 1 13.1395 22.9896 5.27839 0.581513 -4.30776 
1066 1 12.3125 26.5072 5.27839 0.00290867 -4.44407 
1067 1 14.4296 25.1975 5.27839 0.0187877 -4.45645 
1068 1 11.5413 22.6325 3.51932 0.581917 -4.35483 
1069 1 9.34935 23.9599 3.51932 0.0434742 -4.45186 
1070 1 10.6082 26.0828 3.51932 0.00331011 -4.44424 
1073 1 14.0155 26.9211 3.51932 0.000737351 -4.45043 
1072 1 12.7323 24.7907 3.51932 0.0262829 -4.42654 
864 1 7.57215 23.5138 5.27839 0.493008 -4.36355 
266 1 8.04183 29.0587 1.76025 0.000115703 -4.44993 
267 1 10.1736 27.7801 1.76025 0.000439465 -4.45 
268 1 9.32093 31.1953 1.76025 2.22249e-05 -4.45019 
269 1 11.4543 29.9156 1.76025 4.36212e-05 -4.45034 
270 1 13.59 28.6358 1.76025 0.000353984 -4.44879 
271 1 12.7334 32.051 1.76025 5.28454e-06 -4.45001 
278 1 14.4398 32.4784 0.00118586 1.46237e-05 -4.44976 
273 1 8.46588 27.3444 0.00118586 0.00173002 -4.4521 
274 1 9.74676 29.4856 0.00118586 0.000242861 -4.45089 
275 1 11.8841 28.2118 0.00118586 0.000507732 -4.44894 
276 1 13.1616 30.3442 0.00118586 9.07773e-05 -4.44943 
277 1 11.0268 31.6227 0.00118586 3.09865e-05 -4.45037 
76 1 7.6159 30.7699 0.00118586 3.95829e-05 -4.44951 
1074 1 8.04183 29.0587 5.27839 0.000115703 -4.44993 
1075 1 10.1736 27.7801 5.27839 0.000439465 -4.45 
1076 1 9.32093 31.1953 5.27839 2.22249e-05 -4.45019 
1077 1 11.4543 29.9156 5.27839 4.36212e-05 -4.45034 
1078 1 13.59 28.6358 5.27839 0.000353984 -4.44879 
1079 1 12.7334 32.051 5.27839 5.28454e-06 -4.45001 
1086 1 14.4398 32.4784 3.51932 1.46237e-05 -4.44976 
1081 1 8.46588 27.3444 3.51932 0.00173002 -4.4521 
1082 1 9.74676 29.4856 3.51932 0.000242861 -4.45089 
1083 1 11.8841 28.2118 3.51932 0.000507732 -4.44894 
1084 1 13.1616 30.3442 3.51932 9.07773e-05 -4.44943 
1085 1 11.0268 31.6227 3.51932 3.09865e-05 -4.45037 
884 1 7.6159 30.7699 3.51932 3.95829e-05 -4.44951 
279 1 8.46708 34.6134 1.76025 2.20524e-06 -4.4499 
280 1 10.5999 33.3314 1.76025 4.41017e-06 -4.45009 
281 1 9.74577 36.7487 1.76025 3.0689e-07 -4.44996 
282 1 11.8788 35.4671 1.76025 8.08336e-07 -4.45004 
283 1 14.0122 34.1863 1.76025 9.37959e-07 -4.44998 
284 1 13.1577 37.6027 1.76025 1.36102e-07 -4.45001 
285 1 8.8943 32.9048 0.00118586 4.1297e-06 -4.44987 
286 1 8.03973 36.3216 0.00118586 1.89618e-07 -4.44998 
287 1 12.3059 33.7587 0.00118586 3.83e-06 -4.45012 
288 1 10.173 35.0402 0.00118586 4.25956e-07 -4.44996 
289 1 11.4517 37.1756 0.00118586 5.00345e-08 -4.44999 
290 1 13.5849 35.8943 0.00118586 4.36881e-07 -4.45004 
83 1 7.61247 38.0298 1.76025 4.76023e-08 -4.45001 
1087 1 8.46708 34.6134 5.27839 2.20524e-06 -4.4499 
1088 1 10.5999 33.3314 5.27839 4.41017e-06 -4.45009 
1089 1 9.74577 36.7487 5.27839 3.0689e-07 -4.44996 
1090 1 11.8788 35.4671 5.27839 8.08336e-07 -4.45004 
1091 1 14.0122 34.1863 5.27839 9.37959e-07 -4.44998 
1092 1 13.1577 37.6027 5.27839 1.36102e-07 -4.45001 
1093 1 8.8943 32.9048 3.51932 4.1297e-06 -4.44987 