ITEM: TIMESTEP
0
ITEM: NUMBER OF ATOMS
408
ITEM: BOX BOUNDS pp pp pp
-1.0000000000000000e-03 1.4513331802174200e+01
-1.0000000000000000e-03 8.7079990813045001e+01
-1.0000000000000000e-03 3.5200000000000000e+00
ITEM: ATOMS id type x y z c_csym 
1 1 5.54922 0.426863 0 8e-06 
2 1 6.40294 3.84176 0 4e-06 
3 1 5.97608 2.13431 1.76 4e-06 
4 1 2.13431 1.28059 0 7e-06 
5 1 3.84176 0.853725 1.76 8e-06 
6 1 4.26863 2.56118 0 4e-06 
7 1 2.98804 4.69549 0 4e-06 
8 1 4.69549 4.26863 1.76 4e-06 
9 1 2.56118 2.98804 1.76 4e-06 
10 1 0 0 0 1.6e-05 
11 1 0.426863 1.70745 1.76 9e-06 
12 1 0.853725 3.4149 0 8e-06 
13 1 1.28059 5.12235 1.76 7e-06 
14 1 6.8298 5.54922 1.76 4e-06 
15 1 5.12235 5.97608 0 4e-06 
16 1 3.84176 8.11039 0 4e-06 
17 1 5.54922 7.68353 1.76 4e-06 
18 1 3.4149 6.40294 1.76 4e-06 
19 1 5.97608 9.39098 0 4e-06 
20 1 4.26863 9.81784 1.76 4e-06 
21 1 1.70745 6.8298 0 5e-06 
22 1 0.426863 8.96412 0 8e-06 
23 1 2.13431 8.53725 1.76 4e-06 
24 1 0 7.25667 1.76 1e-05 
25 1 2.56118 10.2447 0 4e-06 
26 1 0.853725 10.6716 1.76 8e-06 
27 1 4.69549 11.5253 0 4e-06 
28 1 6.40294 11.0984 1.76 4e-06 
29 1 6.8298 12.8059 0 4e-06 
30 1 5.54922 14.9402 0 4e-06 
31 1 5.12235 13.2327 1.76 4e-06 
32 1 1.28059 12.379 0 7e-06 
33 1 2.98804 11.9522 1.76 4e-06 
34 1 3.4149 13.6596 0 4e-06 
35 1 2.13431 15.7939 0 4e-06 
36 1 3.84176 15.3671 1.76 4e-06 
37 1 1.70745 14.0865 1.76 5e-06 
38 1 0 14.5133 0 1e-05 
39 1 0.426863 16.2208 1.76 8e-06 
40 1 6.40294 18.3551 0 4e-06 
41 1 5.97608 16.6476 1.76 4e-06 
42 1 6.8298 20.0625 1.76 0.728851 
43 1 4.26863 17.0745 0 4e-06 
44 1 2.98804 19.2088 0 4e-06 
45 1 4.69549 18.782 1.76 4e-06 
46 1 2.56118 17.5014 1.76 4e-06 
47 1 5.12235 20.4894 0 7.6529 
48 1 3.4149 20.9163 1.76 5.10193 
49 1 0.853725 17.9282 0 8e-06 
50 1 1.28059 19.6357 1.76 7e-06 
51 1 1.70745 21.3431 0 7.29018 
52 1 0 21.77 1.76 10.9378 
105 1 1.28059 23.9043 1.76 7e-06 
106 1 3.4149 22.6237 1.76 5.10193 
107 1 2.56118 26.0386 1.76 4e-06 
108 1 4.69549 24.758 1.76 4e-06 
109 1 6.8298 23.4774 1.76 0.728851 
110 1 5.97608 26.8924 1.76 4e-06 
111 1 1.70745 22.1969 0 7.29018 
112 1 2.98804 24.3312 0 4e-06 
113 1 0.853725 25.6118 0 8e-06 
114 1 5.12235 23.0506 0 7.6529 
115 1 6.40294 25.1849 0 4e-06 
116 1 4.26863 26.4655 0 4e-06 
117 1 0.426863 27.3192 1.76 8e-06 
118 1 1.70745 29.4535 1.76 5e-06 
119 1 3.84176 28.1729 1.76 4e-06 
120 1 2.98804 31.5878 1.76 4e-06 
121 1 5.12235 30.3073 1.76 4e-06 
122 1 6.40294 32.4416 1.76 4e-06 
123 1 2.13431 27.7461 0 4e-06 
124 1 0 29.0267 0 1e-05 
125 1 1.28059 31.161 0 7e-06 
126 1 5.54922 28.5998 0 4e-06 
127 1 3.4149 29.8804 0 4e-06 
128 1 4.69549 32.0147 0 4e-06 
129 1 6.8298 30.7341 0 4e-06 
130 1 0.853725 32.8684 1.76 8e-06 
131 1 0 36.2833 1.76 1e-05 
132 1 2.13431 35.0027 1.76 4e-06 
133 1 4.26863 33.7222 1.76 4e-06 
134 1 3.4149 37.1371 1.76 4e-06 
135 1 5.54922 35.8565 1.76 4e-06 
136 1 6.8298 37.9908 1.76 4e-06 
137 1 0.426863 34.5759 0 8e-06 
138 1 2.56118 33.2953 0 4e-06 
139 1 3.84176 35.4296 0 4e-06 
140 1 1.70745 36.7102 0 5e-06 
141 1 5.97608 34.149 0 4e-06 
142 1 5.12235 37.5639 0 4e-06 
143 1 1.28059 38.4176 1.76 7e-06 
144 1 0.426863 41.8325 1.76 8e-06 
145 1 2.56118 40.552 1.76 4e-06 
146 1 4.69549 39.2714 1.76 4e-06 
147 1 3.84176 42.6863 1.76 4e-06 
148 1 5.97608 41.4057 1.76 4e-06 
149 1 2.98804 38.8445 0 4e-06 
150 1 0.853725 40.1251 0 8e-06 
151 1 2.13431 42.2594 0 4e-06 
152 1 6.40294 39.6982 0 4e-06 
153 1 4.26863 40.9788 0 4e-06 
154 1 5.54922 43.1131 0 4e-06 
155 1 1.70745 43.9669 1.76 5e-06 
156 1 0.853725 47.3818 1.76 8e-06 
157 1 2.98804 46.1012 1.76 4e-06 
158 1 5.12235 44.8206 1.76 4e-06 
159 1 4.26863 48.2355 1.76 4e-06 
160 1 6.40294 46.9549 1.76 4e-06 
161 1 0 43.54 0 1e-05 
162 1 1.28059 45.6743 0 7e-06 
163 1 3.4149 44.3937 0 4e-06 
164 1 4.69549 46.528 0 4e-06 
165 1 2.56118 47.8086 0 4e-06 
166 1 6.8298 45.2474 0 4e-06 
167 1 5.97608 48.6623 0 4e-06 
168 1 0 50.7967 1.76 1e-05 
169 1 2.13431 49.5161 1.76 4e-06 
170 1 1.28059 52.931 1.76 7e-06 
171 1 3.4149 51.6504 1.76 4e-06 
172 1 5.54922 50.3698 1.76 4e-06 
173 1 4.69549 53.7847 1.76 4e-06 
174 1 6.8298 52.5041 1.76 4e-06 
175 1 0.426863 49.0892 0 8e-06 
176 1 3.84176 49.9429 0 4e-06 
177 1 1.70745 51.2235 0 5e-06 
178 1 2.98804 53.3578 0 4e-06 
179 1 5.12235 52.0772 0 4e-06 
180 1 6.40294 54.2116 0 4e-06 
181 1 0.426863 56.3459 1.76 8e-06 
182 1 2.56118 55.0653 1.76 4e-06 
183 1 1.70745 58.4802 1.76 5e-06 
184 1 3.84176 57.1996 1.76 4e-06 
185 1 5.97608 55.919 1.76 4e-06 
186 1 5.12235 59.3339 1.76 4e-06 
187 1 0.853725 54.6384 0 8e-06 
188 1 2.13431 56.7727 0 4e-06 
189 1 0 58.0533 0 1e-05 
190 1 4.26863 55.4922 0 4e-06 
191 1 5.54922 57.6265 0 4e-06 
192 1 3.4149 58.9071 0 4e-06 
193 1 6.8298 59.7608 0 4e-06 
194 1 0.853725 61.8951 1.76 8e-06 
195 1 2.98804 60.6145 1.76 4e-06 
196 1 2.13431 64.0294 1.76 7.6529 
197 1 4.26863 62.7488 1.76 4e-06 
198 1 6.40294 61.4682 1.76 4e-06 
199 1 5.54922 64.8831 1.76 7.28848 
200 1 1.28059 60.1876 0 7e-06 
201 1 0.426863 63.6025 0 0.728855 
202 1 4.69549 61.0414 0 4e-06 
203 1 2.56118 62.322 0 4e-06 
204 1 3.84176 64.4563 0 5.10193 
205 1 5.97608 63.1757 0 4e-06 
307 1 3.84176 66.1637 0 5.10193 
308 1 5.54922 65.7369 1.76 7.28848 
309 1 5.97608 67.4443 0 4e-06 
310 1 4.69549 69.5786 0 4e-06 
311 1 6.40294 69.1518 1.76 4e-06 
312 1 4.26863 67.8712 1.76 4e-06 
313 1 0.426863 67.0174 0 0.728855 
314 1 2.13431 66.5906 1.76 7.6529 
315 1 0 65.31 1.76 10.9344 
316 1 2.56118 68.298 0 4e-06 
317 1 1.28059 70.4323 0 7e-06 
318 1 2.98804 70.0055 1.76 4e-06 
319 1 0.853725 68.7249 1.76 8e-06 
320 1 6.8298 70.8592 0 4e-06 
321 1 5.54922 72.9935 0 4e-06 
322 1 5.12235 71.2861 1.76 4e-06 
323 1 5.97608 74.701 1.76 4e-06 
324 1 3.4149 71.7129 0 4e-06 
325 1 2.13431 73.8472 0 4e-06 
326 1 3.84176 73.4204 1.76 4e-06 
327 1 1.70745 72.1398 1.76 5e-06 
328 1 4.26863 75.1278 0 4e-06 
329 1 2.56118 75.5547 1.76 4e-06 
330 1 0 72.5667 0 1e-05 
331 1 0.426863 74.2741 1.76 8e-06 
332 1 0.853725 75.9816 0 8e-06 
333 1 6.40294 76.4084 0 4e-06 
334 1 6.8298 78.1159 1.76 4e-06 
335 1 2.98804 77.2621 0 4e-06 
336 1 4.69549 76.8353 1.76 4e-06 
337 1 5.12235 78.5427 0 4e-06 
338 1 3.84176 80.6771 0 4e-06 
339 1 5.54922 80.2502 1.76 4e-06 
340 1 3.4149 78.9696 1.76 4e-06 
341 1 1.28059 77.689 1.76 7e-06 
342 1 1.70745 79.3965 0 5e-06 
343 1 0.426863 81.5308 0 8e-06 
344 1 2.13431 81.1039 1.76 4e-06 
345 1 0 79.8233 1.76 1e-05 
346 1 5.97608 81.9576 0 4e-06 
347 1 4.69549 84.092 0 4e-06 
348 1 6.40294 83.6651 1.76 4e-06 
349 1 4.26863 82.3845 1.76 4e-06 
350 1 6.8298 85.3725 0 7e-06 
351 1 5.12235 85.7994 1.76 8e-06 
352 1 2.56118 82.8114 0 4e-06 
353 1 1.28059 84.9457 0 8e-06 
354 1 2.98804 84.5188 1.76 4e-06 
355 1 0.853725 83.2382 1.76 8e-06 
356 1 3.4149 86.2263 0 8e-06 
357 1 1.70745 86.6531 1.76 1.1e-05 
53 1 13.2327 2.13431 0 8e-06 
54 1 12.8059 0.426863 1.76 1.1e-05 
55 1 13.6596 3.84176 1.76 8e-06 
56 1 11.0984 0.853725 0 8e-06 
57 1 9.81784 2.98804 0 4e-06 
58 1 11.5253 2.56118 1.76 4e-06 
59 1 9.39098 1.28059 1.76 7e-06 
60 1 11.9522 4.26863 0 4e-06 
61 1 10.2447 4.69549 1.76 4e-06 
62 1 7.25667 0 1.76 1e-05 
63 1 7.68353 1.70745 0 5e-06 
64 1 8.11039 3.4149 1.76 4e-06 
65 1 8.53725 5.12235 0 4e-06 
66 1 14.0865 5.54922 0 1e-05 
67 1 10.6716 6.40294 0 4e-06 
68 1 12.379 5.97608 1.76 5e-06 
69 1 12.8059 7.68353 0 7e-06 
70 1 11.5253 9.81784 0 4e-06 
71 1 13.2327 9.39098 1.76 8e-06 
72 1 11.0984 8.11039 1.76 4e-06 
73 1 7.25667 7.25667 0 4e-06 
74 1 8.96412 6.8298 1.76 4e-06 
75 1 9.39098 8.53725 0 4e-06 
76 1 8.11039 10.6716 0 4e-06 
77 1 9.81784 10.2447 1.76 4e-06 
78 1 7.68353 8.96412 1.76 4e-06 
79 1 13.6596 11.0984 0 8e-06 
80 1 12.379 13.2327 0 5e-06 
81 1 14.0865 12.8059 1.76 1e-05 
82 1 11.9522 11.5253 1.76 4e-06 
83 1 12.8059 14.9402 1.76 7e-06 
84 1 10.2447 11.9522 0 4e-06 
85 1 8.96412 14.0865 0 4e-06 
86 1 10.6716 13.6596 1.76 4e-06 
87 1 8.53725 12.379 1.76 4e-06 
88 1 11.0984 15.3671 0 4e-06 
89 1 9.39098 15.7939 1.76 4e-06 
90 1 7.25667 14.5133 1.76 4e-06 
91 1 7.68353 16.2208 0 4e-06 
92 1 13.2327 16.6476 0 8e-06 
93 1 14.0865 20.0625 0 0.728857 
94 1 13.6596 18.3551 1.76 8e-06 
95 1 9.81784 17.5014 0 4e-06 
96 1 11.5253 17.0745 1.76 4e-06 
97 1 11.9522 18.782 0 4e-06 
98 1 10.6716 20.9163 0 5.10193 
99 1 12.379 20.4894 1.76 7.6529 
100 1 10.2447 19.2088 1.76 4e-06 
101 1 8.11039 17.9282 1.76 4e-06 
102 1 8.53725 19.6357 0 4e-06 
103 1 8.96412 21.3431 1.76 7.28848 
104 1 7.25667 21.77 0 10.9327 
206 1 8.96412 22.1969 1.76 7.28848 
207 1 8.11039 25.6118 1.76 4e-06 
208 1 10.2447 24.3312 1.76 4e-06 
209 1 12.379 23.0506 1.76 7.6529 
210 1 11.5253 26.4655 1.76 4e-06 
211 1 13.6596 25.1849 1.76 8e-06 
212 1 10.6716 22.6237 0 5.10193 
213 1 8.53725 23.9043 0 4e-06 
214 1 9.81784 26.0386 0 4e-06 
215 1 14.0865 23.4774 0 0.728857 
216 1 11.9522 24.758 0 4e-06 
217 1 13.2327 26.8924 0 8e-06 
218 1 7.25667 29.0267 1.76 4e-06 
219 1 9.39098 27.7461 1.76 4e-06 
220 1 8.53725 31.161 1.76 4e-06 
221 1 10.6716 29.8804 1.76 4e-06 
222 1 12.8059 28.5998 1.76 7e-06 
223 1 11.9522 32.0147 1.76 4e-06 
224 1 14.0865 30.7341 1.76 1e-05 
225 1 7.68353 27.3192 0 4e-06 
226 1 8.96412 29.4535 0 4e-06 
227 1 11.0984 28.1729 0 4e-06 
228 1 12.379 30.3073 0 5e-06 
229 1 10.2447 31.5878 0 4e-06 
230 1 13.6596 32.4416 0 8e-06 
231 1 7.68353 34.5759 1.76 4e-06 
232 1 9.81784 33.2953 1.76 4e-06 
233 1 8.96412 36.7102 1.76 4e-06 
234 1 11.0984 35.4296 1.76 4e-06 
235 1 13.2327 34.149 1.76 8e-06 
236 1 12.379 37.5639 1.76 5e-06 
237 1 8.11039 32.8684 0 4e-06 
238 1 7.25667 36.2833 0 4e-06 
239 1 11.5253 33.7222 0 4e-06 
240 1 9.39098 35.0027 0 4e-06 
241 1 10.6716 37.1371 0 4e-06 
242 1 12.8059 35.8565 0 7e-06 
243 1 14.0865 37.9908 0 1e-05 
244 1 8.11039 40.1251 1.76 4e-06 
245 1 10.2447 38.8445 1.76 4e-06 
246 1 9.39098 42.2594 1.76 4e-06 
247 1 11.5253 40.9788 1.76 4e-06 
248 1 13.6596 39.6982 1.76 8e-06 
249 1 12.8059 43.1131 1.76 7e-06 
250 1 8.53725 38.4176 0 4e-06 
251 1 9.81784 40.552 0 4e-06 
252 1 7.68353 41.8325 0 4e-06 
253 1 11.9522 39.2714 0 4e-06 
254 1 13.2327 41.4057 0 8e-06 
255 1 11.0984 42.6863 0 4e-06 
256 1 7.25667 43.54 1.76 4e-06 
257 1 8.53725 45.6743 1.76 4e-06 
258 1 10.6716 44.3937 1.76 4e-06 
259 1 9.81784 47.8086 1.76 4e-06 
260 1 11.9522 46.528 1.76 4e-06 
261 1 14.0865 45.2474 1.76 1e-05 
262 1 13.2327 48.6623 1.76 8e-06 
263 1 8.96412 43.9669 0 4e-06 
264 1 8.11039 47.3818 0 4e-06 
265 1 12.379 44.8206 0 5e-06 
266 1 10.2447 46.1012 0 4e-06 
267 1 11.5253 48.2355 0 4e-06 
268 1 13.6596 46.9549 0 8e-06 
269 1 7.68353 49.0892 1.76 4e-06 
270 1 8.96412 51.2235 1.76 4e-06 
271 1 11.0984 49.9429 1.76 4e-06 
272 1 10.2447 53.3578 1.76 4e-06 
273 1 12.379 52.0772 1.76 5e-06 
274 1 13.6596 54.2116 1.76 8e-06 
275 1 7.25667 50.7967 0 4e-06 
276 1 9.39098 49.5161 0 4e-06 
277 1 10.6716 51.6504 0 4e-06 
278 1 8.53725 52.931 0 4e-06 
279 1 12.8059 50.3698 0 7e-06 
280 1 14.0865 52.5041 0 1e-05 
281 1 11.9522 53.7847 0 4e-06 
282 1 8.11039 54.6384 1.76 4e-06 
283 1 7.25667 58.0533 1.76 4e-06 
284 1 9.39098 56.7727 1.76 4e-06 
285 1 11.5253 55.4922 1.76 4e-06 
286 1 10.6716 58.9071 1.76 4e-06 
287 1 12.8059 57.6265 1.76 7e-06 
288 1 14.0865 59.7608 1.76 1e-05 
289 1 9.81784 55.0653 0 4e-06 
290 1 7.68353 56.3459 0 4e-06 
291 1 8.96412 58.4802 0 4e-06 
292 1 13.2327 55.919 0 8e-06 
293 1 11.0984 57.1996 0 4e-06 
294 1 12.379 59.3339 0 5e-06 
295 1 8.53725 60.1876 1.76 4e-06 
296 1 7.68353 63.6025 1.76 0.728851 
297 1 9.81784 62.322 1.76 4e-06 
298 1 11.9522 61.0414 1.76 4e-06 
299 1 11.0984 64.4563 1.76 5.10193 
300 1 13.2327 63.1757 1.76 8e-06 
301 1 8.11039 61.8951 0 4e-06 
302 1 10.2447 60.6145 0 4e-06 
303 1 11.5253 62.7488 0 4e-06 
304 1 9.39098 64.0294 0 7.6529 
305 1 13.6596 61.4682 0 8e-06 
306 1 12.8059 64.8831 0 7.29019 
358 1 12.8059 65.7369 0 7.29019 
359 1 11.5253 67.8712 0 4e-06 
360 1 13.2327 67.4443 1.76 8e-06 
361 1 11.0984 66.1637 1.76 5.10193 
362 1 13.6596 69.1518 0 8e-06 
363 1 11.9522 69.5786 1.76 4e-06 
364 1 7.25667 65.31 0 10.9327 
365 1 9.39098 66.5906 0 7.6529 
366 1 8.11039 68.7249 0 4e-06 
367 1 9.81784 68.298 1.76 4e-06 
368 1 7.68353 67.0174 1.76 0.728851 
369 1 10.2447 70.0055 0 4e-06 
370 1 8.53725 70.4323 1.76 4e-06 
371 1 12.379 71.2861 0 5e-06 
372 1 14.0865 70.8592 1.76 1e-05 
373 1 13.2327 74.701 0 8e-06 
374 1 12.8059 72.9935 1.76 7e-06 
375 1 8.96412 72.1398 0 4e-06 
376 1 10.6716 71.7129 1.76 4e-06 
377 1 11.0984 73.4204 0 4e-06 
378 1 9.81784 75.5547 0 4e-06 
379 1 11.5253 75.1278 1.76 4e-06 
380 1 9.39098 73.8472 1.76 4e-06 
381 1 7.25667 72.5667 1.76 4e-06 
382 1 7.68353 74.2741 0 4e-06 
383 1 8.11039 75.9816 1.76 4e-06 
384 1 14.0865 78.1159 0 1e-05 
385 1 13.6596 76.4084 1.76 8e-06 
386 1 11.9522 76.8353 0 4e-06 
387 1 10.6716 78.9696 0 4e-06 
388 1 12.379 78.5427 1.76 5e-06 
389 1 10.2447 77.2621 1.76 4e-06 
390 1 12.8059 80.2502 0 7e-06 
391 1 11.0984 80.6771 1.76 4e-06 
392 1 8.53725 77.689 0 4e-06 
393 1 7.25667 79.8233 0 4e-06 
394 1 8.96412 79.3965 1.76 4e-06 
395 1 9.39098 81.1039 0 4e-06 
396 1 7.68353 81.5308 1.76 4e-06 
397 1 11.5253 82.3845 0 4e-06 
398 1 13.2327 81.9576 1.76 8e-06 
399 1 13.6596 83.6651 0 8e-06 
400 1 12.379 85.7994 0 9e-06 
401 1 14.0865 85.3725 1.76 1.3e-05 
402 1 11.9522 84.092 1.76 4e-06 
403 1 8.11039 83.2382 0 4e-06 
404 1 9.81784 82.8114 1.76 4e-06 
405 1 10.2447 84.5188 0 4e-06 
406 1 8.96412 86.6531 0 1e-05 
407 1 10.6716 86.2263 1.76 8e-06 
408 1 8.53725 84.9457 1.76 5e-06 
