ITEM: TIMESTEP
0
ITEM: NUMBER OF ATOMS
272
ITEM: BOX BOUNDS pp pp pp
-1.0000000000000000e-03 2.9026663604348300e+01
-1.0000000000000000e-03 2.9026663604348300e+01
-8.8000000000000000e-01 8.8000000000000000e-01
ITEM: ATOMS id type x y z 
1 1 5.54922 0.426863 0 
2 1 2.13431 1.28059 0 
3 1 4.26863 2.56118 0 
4 1 0 0 0 
5 1 0.853725 3.4149 0 
137 2 0 0 0 
138 2 1.28059 2.13431 0 
139 2 3.4149 0.853725 0 
140 2 4.69549 2.98804 0 
141 2 6.8298 1.70745 0 
6 1 6.40294 3.84176 0 
7 1 2.98804 4.69549 0 
8 1 5.12235 5.97608 0 
9 1 1.70745 6.8298 0 
142 2 0.426863 5.54922 0 
143 2 2.56118 4.26863 0 
144 2 3.84176 6.40294 0 
145 2 5.97608 5.12235 0 
10 1 3.84176 8.11039 0 
11 1 5.97608 9.39098 0 
12 1 0.426863 8.96412 0 
13 1 2.56118 10.2447 0 
146 2 1.70745 7.68353 0 
147 2 2.98804 9.81784 0 
148 2 5.12235 8.53725 0 
149 2 6.40294 10.6716 0 
14 1 4.69549 11.5253 0 
15 1 6.8298 12.8059 0 
16 1 1.28059 12.379 0 
17 1 3.4149 13.6596 0 
150 2 0.853725 11.0984 0 
151 2 2.13431 13.2327 0 
152 2 4.26863 11.9522 0 
153 2 5.54922 14.0865 0 
18 1 5.54922 14.9402 0 
19 1 2.13431 15.7939 0 
20 1 4.26863 17.0745 0 
21 1 0 14.5133 0 
22 1 0.853725 17.9282 0 
154 2 0 14.5133 0 
155 2 1.28059 16.6476 0 
156 2 3.4149 15.3671 0 
157 2 4.69549 17.5014 0 
158 2 6.8298 16.2208 0 
23 1 6.40294 18.3551 0 
24 1 2.98804 19.2088 0 
25 1 5.12235 20.4894 0 
26 1 1.70745 21.3431 0 
159 2 0.426863 20.0625 0 
160 2 2.56118 18.782 0 
161 2 3.84176 20.9163 0 
162 2 5.97608 19.6357 0 
27 1 3.84176 22.6237 0 
28 1 5.97608 23.9043 0 
29 1 0.426863 23.4774 0 
30 1 2.56118 24.758 0 
163 2 1.70745 22.1969 0 
164 2 2.98804 24.3312 0 
165 2 5.12235 23.0506 0 
166 2 6.40294 25.1849 0 
31 1 4.69549 26.0386 0 
32 1 6.8298 27.3192 0 
33 1 1.28059 26.8924 0 
34 1 3.4149 28.1729 0 
167 2 0.853725 25.6118 0 
168 2 2.13431 27.7461 0 
169 2 4.26863 26.4655 0 
170 2 5.54922 28.5998 0 
35 1 13.2327 2.13431 0 
36 1 11.0984 0.853725 0 
37 1 9.81784 2.98804 0 
38 1 7.68353 1.70745 0 
171 2 8.96412 0.426863 0 
172 2 12.379 1.28059 0 
173 2 10.2447 2.56118 0 
174 2 13.6596 3.4149 0 
39 1 14.0865 5.54922 0 
40 1 11.9522 4.26863 0 
41 1 10.6716 6.40294 0 
42 1 8.53725 5.12235 0 
175 2 8.11039 3.84176 0 
176 2 11.5253 4.69549 0 
177 2 9.39098 5.97608 0 
178 2 12.8059 6.8298 0 
43 1 12.8059 7.68353 0 
44 1 11.5253 9.81784 0 
45 1 7.25667 7.25667 0 
46 1 9.39098 8.53725 0 
47 1 8.11039 10.6716 0 
179 2 7.25667 7.25667 0 
180 2 10.6716 8.11039 0 
181 2 8.53725 9.39098 0 
182 2 14.0865 8.96412 0 
183 2 11.9522 10.2447 0 
48 1 13.6596 11.0984 0 
49 1 12.379 13.2327 0 
50 1 10.2447 11.9522 0 
51 1 8.96412 14.0865 0 
184 2 9.81784 11.5253 0 
185 2 7.68353 12.8059 0 
186 2 13.2327 12.379 0 
187 2 11.0984 13.6596 0 
52 1 13.2327 16.6476 0 
53 1 11.0984 15.3671 0 
54 1 9.81784 17.5014 0 
55 1 7.68353 16.2208 0 
188 2 8.96412 14.9402 0 
189 2 12.379 15.7939 0 
190 2 10.2447 17.0745 0 
191 2 13.6596 17.9282 0 
56 1 14.0865 20.0625 0 
57 1 11.9522 18.782 0 
58 1 10.6716 20.9163 0 
59 1 8.53725 19.6357 0 
192 2 8.11039 18.3551 0 
193 2 11.5253 19.2088 0 
194 2 9.39098 20.4894 0 
195 2 12.8059 21.3431 0 
60 1 12.8059 22.1969 0 
61 1 11.5253 24.3312 0 
62 1 7.25667 21.77 0 
63 1 9.39098 23.0506 0 
64 1 8.11039 25.1849 0 
196 2 7.25667 21.77 0 
197 2 10.6716 22.6237 0 
198 2 8.53725 23.9043 0 
199 2 14.0865 23.4774 0 
200 2 11.9522 24.758 0 
65 1 13.6596 25.6118 0 
66 1 12.379 27.7461 0 
67 1 10.2447 26.4655 0 
68 1 8.96412 28.5998 0 
201 2 9.81784 26.0386 0 
202 2 7.68353 27.3192 0 
203 2 13.2327 26.8924 0 
204 2 11.0984 28.1729 0 
69 1 20.0625 0.426863 0 
70 1 16.6476 1.28059 0 
71 1 18.782 2.56118 0 
72 1 14.5133 0 0 
73 1 15.3671 3.4149 0 
205 2 14.5133 0 0 
206 2 15.7939 2.13431 0 
207 2 17.9282 0.853725 0 
208 2 19.2088 2.98804 0 
209 2 21.3431 1.70745 0 
74 1 20.9163 3.84176 0 
75 1 17.5014 4.69549 0 
76 1 19.6357 5.97608 0 
77 1 16.2208 6.8298 0 
210 2 14.9402 5.54922 0 
211 2 17.0745 4.26863 0 
212 2 18.3551 6.40294 0 
213 2 20.4894 5.12235 0 
78 1 18.3551 8.11039 0 
79 1 20.4894 9.39098 0 
80 1 14.9402 8.96412 0 
81 1 17.0745 10.2447 0 
214 2 16.2208 7.68353 0 
215 2 17.5014 9.81784 0 
216 2 19.6357 8.53725 0 
217 2 20.9163 10.6716 0 
82 1 19.2088 11.5253 0 
83 1 21.3431 12.8059 0 
84 1 15.7939 12.379 0 
85 1 17.9282 13.6596 0 
218 2 15.3671 11.0984 0 
219 2 16.6476 13.2327 0 
220 2 18.782 11.9522 0 
221 2 20.0625 14.0865 0 
86 1 20.0625 14.9402 0 
87 1 16.6476 15.7939 0 
88 1 18.782 17.0745 0 
89 1 14.5133 14.5133 0 
90 1 15.3671 17.9282 0 
222 2 14.5133 14.5133 0 
223 2 15.7939 16.6476 0 
224 2 17.9282 15.3671 0 
225 2 19.2088 17.5014 0 
226 2 21.3431 16.2208 0 
91 1 20.9163 18.3551 0 
92 1 17.5014 19.2088 0 
93 1 19.6357 20.4894 0 
94 1 16.2208 21.3431 0 
227 2 14.9402 20.0625 0 
228 2 17.0745 18.782 0 
229 2 18.3551 20.9163 0 
230 2 20.4894 19.6357 0 
95 1 18.3551 22.6237 0 
96 1 20.4894 23.9043 0 
97 1 14.9402 23.4774 0 
98 1 17.0745 24.758 0 
231 2 16.2208 22.1969 0 
232 2 17.5014 24.3312 0 
233 2 19.6357 23.0506 0 
234 2 20.9163 25.1849 0 
99 1 19.2088 26.0386 0 
100 1 21.3431 27.3192 0 
101 1 15.7939 26.8924 0 
102 1 17.9282 28.1729 0 
235 2 15.3671 25.6118 0 
236 2 16.6476 27.7461 0 
237 2 18.782 26.4655 0 
238 2 20.0625 28.5998 0 
103 1 27.7461 2.13431 0 
104 1 25.6118 0.853725 0 
105 1 24.3312 2.98804 0 
106 1 22.1969 1.70745 0 
239 2 23.4774 0.426863 0 
240 2 26.8924 1.28059 0 
241 2 24.758 2.56118 0 
242 2 28.1729 3.4149 0 
107 1 28.5998 5.54922 0 
108 1 26.4655 4.26863 0 
109 1 25.1849 6.40294 0 
110 1 23.0506 5.12235 0 
243 2 22.6237 3.84176 0 
244 2 26.0386 4.69549 0 
245 2 23.9043 5.97608 0 
246 2 27.3192 6.8298 0 
111 1 27.3192 7.68353 0 
112 1 26.0386 9.81784 0 
113 1 21.77 7.25667 0 
114 1 23.9043 8.53725 0 
115 1 22.6237 10.6716 0 
247 2 21.77 7.25667 0 
248 2 25.1849 8.11039 0 
249 2 23.0506 9.39098 0 
250 2 28.5998 8.96412 0 
251 2 26.4655 10.2447 0 
116 1 28.1729 11.0984 0 
117 1 26.8924 13.2327 0 
118 1 24.758 11.9522 0 
119 1 23.4774 14.0865 0 
252 2 24.3312 11.5253 0 
253 2 22.1969 12.8059 0 
254 2 27.7461 12.379 0 
255 2 25.6118 13.6596 0 
120 1 27.7461 16.6476 0 
121 1 25.6118 15.3671 0 
122 1 24.3312 17.5014 0 
123 1 22.1969 16.2208 0 
256 2 23.4774 14.9402 0 
257 2 26.8924 15.7939 0 
258 2 24.758 17.0745 0 
259 2 28.1729 17.9282 0 
124 1 28.5998 20.0625 0 
125 1 26.4655 18.782 0 
126 1 25.1849 20.9163 0 
127 1 23.0506 19.6357 0 
260 2 22.6237 18.3551 0 
261 2 26.0386 19.2088 0 
262 2 23.9043 20.4894 0 
263 2 27.3192 21.3431 0 
128 1 27.3192 22.1969 0 
129 1 26.0386 24.3312 0 
130 1 21.77 21.77 0 
131 1 23.9043 23.0506 0 
132 1 22.6237 25.1849 0 
264 2 21.77 21.77 0 
265 2 25.1849 22.6237 0 
266 2 23.0506 23.9043 0 
267 2 28.5998 23.4774 0 
268 2 26.4655 24.758 0 
133 1 28.1729 25.6118 0 
134 1 26.8924 27.7461 0 
135 1 24.758 26.4655 0 
136 1 23.4774 28.5998 0 
269 2 24.3312 26.0386 0 
270 2 22.1969 27.3192 0 
271 2 27.7461 26.8924 0 
272 2 25.6118 28.1729 0 
