ITEM: TIMESTEP
150
ITEM: NUMBER OF ATOMS
1616
ITEM: BOX BOUNDS pp pp pp
0.0048760581 29.01003543
0.0342543246 87.0447364885
4.2546008738e-04 7.0367236197
ITEM: ATOMS id type x y z Centrosymmetry StructureType
1 1 5.05203 0.503843 0.00117485 1.7364960033e-08 1
2 1 5.90641 3.92065 0.00117485 1.3261832438e-07 1
3 1 5.47923 2.21223 1.76025 6.93709e-09 1
4 1 1.63997 1.35804 0.00117485 6.4803799159e-09 1
5 1 3.34601 0.930927 1.76025 1.6327938407e-08 1
6 1 3.77324 2.63928 0.00117485 4.5705324384e-08 1
7 1 2.49447 4.77467 0.00117485 3.1616632438e-07 1
8 1 4.20043 4.3477 1.76025 5.090609e-08 1
9 1 2.06721 3.06635 1.76025 4.0720667072e-08 1
13 1 0.788424 5.20175 1.76025 1.7371839364e-07 1
12 1 0.361156 3.4935 0.00117485 4.9871444787e-08 1
212 1 6.75804 0.076768 1.76025 4.2837290679e-09 1
213 1 7.18524 1.78515 0.00117485 2.321705729e-08 1
809 1 5.05203 0.503843 3.51932 1.7746635649e-08 1
810 1 5.90641 3.92065 3.51932 1.33e-07 1
811 1 5.47923 2.21223 5.2784 7.026459946e-09 1
812 1 1.63997 1.35804 3.51932 6.8620555316e-09 1
813 1 3.34601 0.930927 5.2784 1.6417308353e-08 1
814 1 3.77324 2.63928 3.51932 4.6087e-08 1
815 1 2.49447 4.77467 3.51932 3.16548e-07 1
816 1 4.20043 4.3477 5.2784 5.0995459945e-08 1
817 1 2.06721 3.06635 5.2784 4.0810037018e-08 1
821 1 0.788424 5.20175 5.2784 1.7380776359e-07 1
820 1 0.361156 3.4935 3.51932 5.0253120402e-08 1
1020 1 6.75804 0.076768 5.2784 4.3730990138e-09 1
1021 1 7.18524 1.78515 3.51932 2.3598732905e-08 1
14 1 6.33359 5.629 1.76025 4.3850609e-07 1
15 1 4.62755 6.05622 0.00117485 8.1491832438e-07 1
16 1 3.34863 8.19195 0.00117485 4.4243183244e-06 1
17 1 5.05464 7.76463 1.76025 3.80800609e-06 1
18 1 2.92166 6.48315 1.76025 4.2384209e-07 1
19 1 5.48207 9.47236 0.00117485 5.3613183244e-06 1
20 1 3.77545 9.90069 1.76025 3.152700609e-05 1
21 1 1.21577 6.90995 0.00117485 2.1971663142e-06 1
26 1 0.364591 10.7535 1.76025 3.9893928331e-05 1
23 1 1.64299 8.61852 1.76025 3.9683537246e-06 1
25 1 2.06963 10.328 0.00117485 2.2123218197e-05 1
223 1 6.76092 7.33709 0.00117485 9.3141832439e-07 1
228 1 7.1885 9.04493 1.76025 1.447440609e-05 1
822 1 6.33359 5.629 5.2784 4.3859545994e-07 1
823 1 4.62755 6.05622 3.51932 8.153e-07 1
824 1 3.34863 8.19195 3.51932 4.4247e-06 1
825 1 5.05464 7.76463 5.2784 3.8080954599e-06 1
826 1 2.92166 6.48315 5.2784 4.2393145995e-07 1
827 1 5.48207 9.47236 3.51932 5.3617e-06 1
828 1 3.77545 9.90069 5.2784 3.152709546e-05 1
829 1 1.21577 6.90995 3.51932 2.1975479898e-06 1
834 1 0.364591 10.7535 5.2784 3.98940177e-05 1
831 1 1.64299 8.61852 5.2784 3.9684430945e-06 1
833 1 2.06963 10.328 3.51932 2.2123599872e-05 1
1031 1 6.76092 7.33709 3.51932 9.318e-07 1
1036 1 7.1885 9.04493 5.2784 1.447449546e-05 1
27 1 4.20304 11.6077 0.00117485 4.3568918324e-05 1
28 1 5.91033 11.1792 1.76025 9.074620609e-05 1
29 1 6.3387 12.8875 0.00117485 3.5644141832e-04 1
30 1 5.06116 15.0162 0.00117485 0.0028986994 1
31 1 4.63281 13.3115 1.76025 5.1100790609e-04 1
32 1 0.790516 12.4647 0.00117485 1.1768985316e-04 1
33 1 2.49546 12.0378 1.76025 2.4517935909e-04 1
34 1 2.92227 13.7433 0.00117485 4.3897351432e-04 1
35 1 1.64354 15.8859 0.00117485 0.0064948724 1
36 1 3.35687 15.4406 1.76025 0.0033160094 1
37 1 1.21457 14.179 1.76025 0.0017398085 1
240 1 6.76422 14.6023 1.76025 7.3203380609e-04 1
241 1 7.17832 16.3259 0.00117485 0.0187785236 1
835 1 4.20304 11.6077 3.51932 4.35693e-05 1
836 1 5.91033 11.1792 5.2784 9.074629546e-05 1
837 1 6.3387 12.8875 3.51932 3.564418e-04 1
838 1 5.06116 15.0162 3.51932 0.0028986998 1
839 1 4.63281 13.3115 5.2784 5.1100799546e-04 1
840 1 0.790516 12.4647 3.51932 1.1769023484e-04 1
841 1 2.49546 12.0378 5.2784 2.4517944846e-04 1
842 1 2.92227 13.7433 3.51932 4.38973896e-04 1
843 1 1.64354 15.8859 3.51932 0.0064948728 1
844 1 3.35687 15.4406 5.2784 0.0033160095 1
845 1 1.21457 14.179 5.2784 0.0017398086 1
1048 1 6.76422 14.6023 5.2784 7.3203389546e-04 1
1049 1 7.17832 16.3259 3.51932 0.018778524 1
40 1 5.88818 18.5338 0.00117485 0.5815650791 1
41 1 5.48104 16.7327 1.76025 0.026296226 1
42 1 6.45109 20.7617 1.76025 8.1637980026 0
43 1 3.80279 17.1526 0.00117485 0.0312334394 1
44 1 2.49606 19.226 0.00117485 2.8474166852 0
45 1 4.29001 18.8909 1.76025 0.5818845475 1
46 1 2.09805 17.5635 1.76025 0.0434783584 1
47 1 4.63782 20.7617 0.00117485 3.5197812226 0
48 1 2.87218 20.7617 1.76025 7.5094379154 0
49 1 0.32084 18.0096 0.00117485 0.4932224582 1
50 1 0.746189 19.6058 1.76025 8.5905337564 0
848 1 5.88818 18.5338 3.51932 0.5815650795 1
849 1 5.48104 16.7327 5.2784 0.0262962261 1
850 1 6.45109 20.7617 5.2784 8.1637980027 0
851 1 3.80279 17.1526 3.51932 0.0312334398 1
852 1 2.49606 19.226 3.51932 2.8474166856 0
853 1 4.29001 18.8909 5.2784 0.5818845476 1
854 1 2.09805 17.5635 5.2784 0.0434783585 1
855 1 4.63782 20.7617 3.51932 3.519781223 0
856 1 2.87218 20.7617 5.2784 7.5094379155 0
857 1 0.32084 18.0096 3.51932 0.4932224586 1
858 1 0.746189 19.6058 5.2784 8.5905443448 0
51 1 0.746188 21.9175 1.76025 8.5902089057 0
52 1 2.09805 23.9598 1.76025 0.0434689147 1
53 1 4.29001 22.6325 1.76025 0.5819712675 1
54 1 3.35687 26.0827 1.76025 0.0033019412 1
55 1 5.48104 24.7906 1.76025 0.0262888331 1
63 1 5.06116 26.5071 0.00117485 0.0028987488 1
57 1 6.76421 26.921 1.76025 7.3599910609e-04 1
58 1 2.49606 22.2973 0.00117485 2.8473855389 0
59 1 3.80279 24.3707 0.00117485 0.0312015267 1
60 1 1.64353 25.6375 0.00117485 0.0064659517 1
61 1 5.88818 22.9895 0.00117485 0.5814572491 1
62 1 7.17832 25.1974 0.00117485 0.0187796764 1
859 1 0.746188 21.9175 5.2784 8.5902194942 0
860 1 2.09805 23.9598 5.2784 0.0434689148 1
861 1 4.29001 22.6325 5.2784 0.5819712676 1
862 1 3.35687 26.0827 5.2784 0.0033019413 1
863 1 5.48104 24.7906 5.2784 0.0262888332 1
871 1 5.06116 26.5071 3.51932 0.0028987492 1
865 1 6.76421 26.921 5.2784 7.3599919546e-04 1
866 1 2.49606 22.2973 3.51932 2.8473855393 0
867 1 3.80279 24.3707 3.51932 0.0312015271 1
868 1 1.64353 25.6375 3.51932 0.0064659521 1
869 1 5.88818 22.9895 3.51932 0.5814572495 1
870 1 7.17832 25.1974 3.51932 0.0187796768 1
667 1 0.32084 23.5137 0.00117485 0.4929669781 1
1475 1 0.32084 23.5137 3.51932 0.4929669785 1
64 1 1.21457 27.3444 1.76025 0.001717232 1
65 1 2.49546 29.4855 1.76025 2.4441225909e-04 1
66 1 4.63281 28.2118 1.76025 5.1112680609e-04 1
67 1 3.77545 31.6226 1.76025 3.252050609e-05 1
68 1 5.91033 30.3441 1.76025 9.066200609e-05 1
69 1 7.1885 32.4784 1.76025 1.478970609e-05 1
70 1 2.92227 27.78 0.00117485 4.3600281432e-04 1
71 1 0.790516 29.0586 0.00117485 1.164391806e-04 1
72 1 2.06962 31.1953 0.00117485 2.2203163324e-05 1
73 1 6.3387 28.6358 0.00117485 3.5422561832e-04 1
74 1 4.20304 29.9156 0.00117485 4.3368218324e-05 1
75 1 5.48207 32.051 0.00117485 5.5793183244e-06 1
872 1 1.21457 27.3444 5.2784 0.0017172321 1
873 1 2.49546 29.4855 5.2784 2.4441234846e-04 1
874 1 4.63281 28.2118 5.2784 5.1112689546e-04 1
875 1 3.77545 31.6226 5.2784 3.252059546e-05 1
876 1 5.91033 30.3441 5.2784 9.066209546e-05 1
877 1 7.1885 32.4784 5.2784 1.478979546e-05 1
878 1 2.92227 27.78 3.51932 4.36003196e-04 1
879 1 0.790516 29.0586 3.51932 1.1643956227e-04 1
880 1 2.06962 31.1953 3.51932 2.2203544999e-05 1
881 1 6.3387 28.6358 3.51932 3.54226e-04 1
882 1 4.20304 29.9156 3.51932 4.33686e-05 1
883 1 5.48207 32.051 3.51932 5.5797e-06 1
676 1 0.364591 30.7698 1.76025 3.9264783204e-05 1
1484 1 0.364591 30.7698 5.2784 3.9264872573e-05 1
77 1 1.64299 32.9048 1.76025 4.0846537246e-06 1
78 1 0.788423 36.3216 1.76025 2.8717044443e-07 1
79 1 2.92166 35.0402 1.76025 5.2315508999e-07 1
80 1 5.05464 33.7587 1.76025 3.94570609e-06 1
81 1 4.20043 37.1756 1.76025 7.8206089998e-08 1
82 1 6.33359 35.8943 1.76025 5.3100608999e-07 1
89 1 5.90641 37.6027 0.00117485 7.4418324383e-08 1
84 1 1.21577 34.6134 0.00117485 2.3901723142e-06 1
85 1 3.34863 33.3314 0.00117485 4.3652183244e-06 1
86 1 4.62754 35.4671 0.00117485 7.2571832438e-07 1
87 1 2.49447 36.7486 0.00117485 2.1988132438e-07 1
88 1 6.76092 34.1862 0.00117485 8.1821832439e-07 1
885 1 1.64299 32.9048 5.2784 4.0847430946e-06 1
886 1 0.788423 36.3216 5.2784 2.8725981437e-07 1
887 1 2.92166 35.0402 5.2784 5.2324445994e-07 1
888 1 5.05464 33.7587 5.2784 3.94579546e-06 1
889 1 4.20043 37.1756 5.2784 7.8295459944e-08 1
890 1 6.33359 35.8943 5.2784 5.3109545994e-07 1
897 1 5.90641 37.6027 3.51932 7.4799999999e-08 1
892 1 1.21577 34.6134 3.51932 2.3905539898e-06 1
893 1 3.34863 33.3314 3.51932 4.3656e-06 1
894 1 4.62754 35.4671 3.51932 7.2609999999e-07 1
895 1 2.49447 36.7486 3.51932 2.20263e-07 1
896 1 6.76092 34.1862 3.51932 8.186e-07 1
695 1 0.361155 38.0298 0.00117485 1.2919800829e-07 1
1503 1 0.361155 38.0298 3.51932 1.295796839e-07 1
90 1 2.06721 38.457 1.76025 1.4476266707e-07 1
91 1 1.21276 41.8736 1.76025 4.1470231918e-08 1
92 1 3.34601 40.5924 1.76025 3.1806089996e-08 1
93 1 5.47923 39.3111 1.76025 1.1306090001e-08 1
94 1 4.62481 42.7278 1.76025 3.1006089998e-08 1
95 1 6.75804 41.4465 1.76025 6.1106090001e-08 1
96 1 3.77324 38.884 0.00117485 4.6818324386e-08 1
97 1 1.63997 40.1653 0.00117485 2.3719889237e-08 1
98 1 2.91878 42.3007 0.00117485 4.1143324384e-08 1
99 1 7.18523 39.7382 0.00117485 4.7518324383e-08 1
100 1 5.05203 41.0195 0.00117485 6.3618324386e-08 1
101 1 6.33083 43.1549 0.00117485 1.1518324385e-08 1
898 1 2.06721 38.457 5.2784 1.4485203702e-07 1
899 1 1.21276 41.8736 5.2784 4.1559601864e-08 1
900 1 3.34601 40.5924 5.2784 3.1895459942e-08 1
901 1 5.47923 39.3111 5.2784 1.1395459947e-08 1
902 1 4.62481 42.7278 5.2784 3.1095459944e-08 1
903 1 6.75804 41.4465 5.2784 6.1195459947e-08 1
904 1 3.77324 38.884 3.51932 4.7200000002e-08 1
905 1 1.63997 40.1653 3.51932 2.4101564853e-08 1
906 1 2.91878 42.3007 3.51932 4.1525e-08 1
907 1 7.18523 39.7382 3.51932 4.7899999999e-08 1
908 1 5.05203 41.0195 3.51932 6.4000000001e-08 1
909 1 6.33083 43.1549 3.51932 1.1900000001e-08 1
102 1 2.49156 44.0091 1.76025 1.3565089998e-08 1
103 1 1.63719 47.4259 1.76025 2.4640911459e-07 1
104 1 3.77036 46.1445 1.76025 9.1406089997e-08 1
105 1 5.90362 44.8633 1.76025 4.3806090006e-08 1
106 1 5.04912 48.2799 1.76025 3.6220609e-07 1
107 1 7.18244 46.9987 1.76025 5.1106089999e-08 1
108 1 0.785555 43.582 0.00117485 4.9277578828e-10 1
109 1 2.06436 45.7175 0.00117485 4.1861718991e-08 1
110 1 4.19758 44.4362 0.00117485 3.1918324383e-08 1
111 1 5.47638 46.5716 0.00117485 1.6618324385e-08 1
112 1 3.34316 47.8529 0.00117485 1.1091832439e-07 1
114 1 6.75517 48.707 0.00117485 1.6751832438e-07 1
910 1 2.49156 44.0091 5.2784 1.3654459944e-08 1
911 1 1.63719 47.4259 5.2784 2.4649848454e-07 1
912 1 3.77036 46.1445 5.2784 9.1495459943e-08 1
913 1 5.90362 44.8633 5.2784 4.3895459952e-08 1
914 1 5.04912 48.2799 5.2784 3.6229545995e-07 1
915 1 7.18244 46.9987 5.2784 5.1195459945e-08 1
916 1 0.785555 43.582 3.51932 8.7445140397e-10 1
917 1 2.06436 45.7175 3.51932 4.2243394607e-08 1
918 1 4.19758 44.4362 3.51932 3.2299999999e-08 1
919 1 5.47638 46.5716 3.51932 1.7000000001e-08 1
920 1 3.34316 47.8529 3.51932 1.1130000001e-07 1
922 1 6.75517 48.707 3.51932 1.679e-07 1
713 1 0.358357 45.2904 1.76025 4.426841612e-08 1
1521 1 0.358357 45.2904 5.2784 4.4357786066e-08 1
115 1 0.782668 50.8423 1.76025 1.2455186198e-06 1
116 1 2.91605 49.5615 1.76025 1.20905009e-06 1
117 1 2.06152 52.9776 1.76025 5.3280138889e-06 1
118 1 4.19497 51.6972 1.76025 4.42450609e-06 1
119 1 6.32782 50.4152 1.76025 2.15290609e-06 1
120 1 5.47397 53.8333 1.76025 2.345050609e-05 1
127 1 7.179 54.2587 0.00117485 4.0576018324e-05 1
122 1 1.21 49.1342 0.00117485 3.9210767203e-07 1
123 1 4.62193 49.9884 0.00117485 4.0361832439e-07 1
124 1 2.48895 51.2699 0.00117485 3.8823953244e-06 1
125 1 3.76814 53.4059 0.00117485 2.9809818324e-05 1
126 1 5.9006 52.1238 0.00117485 3.9341183244e-06 1
923 1 0.782668 50.8423 5.2784 1.2456079897e-06 1
924 1 2.91605 49.5615 5.2784 1.20913946e-06 1
925 1 2.06152 52.9776 5.2784 5.3281032588e-06 1
926 1 4.19497 51.6972 5.2784 4.42459546e-06 1
927 1 6.32782 50.4152 5.2784 2.15299546e-06 1
928 1 5.47397 53.8333 5.2784 2.345059546e-05 1
935 1 7.179 54.2587 3.51932 4.05764e-05 1
930 1 1.21 49.1342 3.51932 3.9248934764e-07 1
931 1 4.62193 49.9884 3.51932 4.04e-07 1
932 1 2.48895 51.2699 3.51932 3.882777e-06 1
933 1 3.76814 53.4059 3.51932 2.98102e-05 1
934 1 5.9006 52.1238 3.51932 3.9345e-06 1
732 1 0.355087 52.5502 0.00117485 1.4399277495e-05 1
1540 1 0.355087 52.5502 3.51932 1.439965917e-05 1
128 1 1.20489 56.3928 1.76025 3.5306904599e-04 1
129 1 3.34055 55.113 1.76025 4.343830609e-05 1
130 1 2.48243 58.5214 1.76025 0.002916696 1
131 1 4.62132 57.2485 1.76025 4.4183730609e-04 1
132 1 6.75308 55.9699 1.76025 1.1619880609e-04 1
133 1 5.90006 59.3911 1.76025 0.0064857635 1
134 1 1.63326 54.6844 0.00117485 9.2194697328e-05 1
135 1 2.91078 56.8168 0.00117485 5.0554913432e-04 1
136 1 0.779376 58.1076 0.00117485 7.4291842146e-04 1
137 1 5.04813 55.543 0.00117485 2.4007601832e-04 1
138 1 6.32902 57.6842 0.00117485 0.0017284471 1
139 1 4.18672 58.9458 0.00117485 0.0033151411 1
936 1 1.20489 56.3928 5.2784 3.5306913536e-04 1
937 1 3.34055 55.113 5.2784 4.343839546e-05 1
938 1 2.48243 58.5214 5.2784 0.0029166961 1
939 1 4.62132 57.2485 5.2784 4.4183739546e-04 1
940 1 6.75308 55.9699 5.2784 1.1619889546e-04 1
941 1 5.90006 59.3911 5.2784 0.0064857636 1
942 1 1.63326 54.6844 3.51932 9.2195079004e-05 1
943 1 2.91078 56.8168 3.51932 5.05549516e-04 1
944 1 0.779376 58.1076 3.51932 7.4291880314e-04 1
945 1 5.04813 55.543 3.51932 2.400764e-04 1
946 1 6.32902 57.6842 3.51932 0.0017284475 1
947 1 4.18672 58.9458 3.51932 0.0033151415 1
740 1 0.365272 59.8312 1.76025 0.0188115484 1
1548 1 0.365272 59.8312 5.2784 0.0188115485 1
141 1 1.65541 62.039 1.76025 0.581445464 1
142 1 3.7408 60.6578 1.76025 0.0312223268 1
143 1 2.90577 64.2669 1.76025 3.5200561977 0
144 1 5.04753 62.7313 1.76025 2.8470384274 0
145 1 7.22275 61.5149 1.76025 0.4928818979 1
146 1 6.7974 63.1111 0.00117485 8.5901238642 0
147 1 2.06255 60.2379 0.00117485 0.0263014867 1
148 1 1.0925 64.2669 0.00117485 8.1634010386 0
149 1 5.44554 61.0687 0.00117485 0.0434899272 1
150 1 3.25358 62.3961 0.00117485 0.5818803035 1
151 1 4.67142 64.2669 0.00117485 7.5097767728 0
949 1 1.65541 62.039 5.2784 0.5814454641 1
950 1 3.7408 60.6578 5.2784 0.0312223269 1
951 1 2.90577 64.2669 5.2784 3.5200561978 0
952 1 5.04753 62.7313 5.2784 2.8470384275 0
953 1 7.22275 61.5149 5.2784 0.492881898 1
954 1 6.7974 63.1111 3.51932 8.590113276 0
955 1 2.06255 60.2379 3.51932 0.026301487 1
956 1 1.0925 64.2669 3.51932 8.1634010391 0
957 1 5.44554 61.0687 3.51932 0.0434899276 1
958 1 3.25358 62.3961 3.51932 0.5818803039 1
959 1 4.67142 64.2669 3.51932 7.509776773 0
152 1 3.25358 66.1377 0.00117485 0.5818803035 1
153 1 5.04753 65.8025 1.76025 2.8470384274 0
154 1 5.44554 67.4651 0.00117485 0.0434899272 1
155 1 4.18672 69.588 0.00117485 0.0033151411 1
156 1 5.90006 69.1427 1.76025 0.0064857635 1
157 1 3.7408 67.876 1.76025 0.0312223268 1
164 1 0.365273 68.7026 1.76025 0.0188118264 1
159 1 1.65541 66.4948 1.76025 0.5814453844 1
163 1 2.48243 70.0124 1.76025 0.0029167444 1
161 1 2.06255 68.2959 0.00117485 0.0263012263 1
162 1 0.779377 70.4262 0.00117485 7.4283622141e-04 1
360 1 6.7974 65.4227 0.00117485 8.5901238642 0
364 1 7.22275 67.0189 1.76025 0.4928818979 1
960 1 3.25358 66.1377 3.51932 0.5818803039 1
961 1 5.04753 65.8025 5.2784 2.8470384275 0
962 1 5.44554 67.4651 3.51932 0.0434899276 1
963 1 4.18672 69.588 3.51932 0.0033151415 1
964 1 5.90006 69.1427 5.2784 0.0064857636 1
965 1 3.7408 67.876 5.2784 0.0312223269 1
972 1 0.365273 68.7026 5.2784 0.0188118265 1
967 1 1.65541 66.4948 5.2784 0.5814453845 1
971 1 2.48243 70.0124 5.2784 0.0029167445 1
969 1 2.06255 68.2959 3.51932 0.0263012266 1
970 1 0.779377 70.4262 3.51932 7.4283660309e-04 1
1168 1 6.7974 65.4227 3.51932 8.590113276 0
1172 1 7.22275 67.0189 5.2784 0.492881898 1
165 1 6.32902 70.8496 0.00117485 0.0017284471 1
166 1 5.04813 72.9908 0.00117485 2.4007601833e-04 1
167 1 4.62132 71.2853 1.76025 4.4183730609e-04 1
168 1 5.47397 74.7005 1.76025 2.345050609e-05 1
169 1 2.91078 71.717 0.00117485 5.0556102732e-04 1
170 1 1.63326 73.8494 0.00117485 9.2193392328e-05 1
171 1 3.34055 73.4208 1.76025 4.343830609e-05 1
172 1 1.20489 72.141 1.76025 3.5308047199e-04 1
173 1 3.76814 75.1279 0.00117485 2.9809818325e-05 1
174 1 2.06152 75.5562 1.76025 5.328763889e-06 1
177 1 0.355088 75.9836 0.00117485 1.4387758418e-05 1
377 1 6.75308 72.5639 1.76025 1.1619880609e-04 1
378 1 7.179 74.2751 0.00117485 4.0576018324e-05 1
973 1 6.32902 70.8496 3.51932 0.0017284475 1
974 1 5.04813 72.9908 3.51932 2.400764e-04 1
975 1 4.62132 71.2853 5.2784 4.4183739546e-04 1
976 1 5.47397 74.7005 5.2784 2.345059546e-05 1
977 1 2.91078 71.717 3.51932 5.05561409e-04 1
978 1 1.63326 73.8494 3.51932 9.2193774003e-05 1
979 1 3.34055 73.4208 5.2784 4.343839546e-05 1
980 1 1.20489 72.141 5.2784 3.5308056136e-04 1
981 1 3.76814 75.1279 3.51932 2.98102e-05 1
982 1 2.06152 75.5562 5.2784 5.3288532589e-06 1
985 1 0.355088 75.9836 3.51932 1.4388140094e-05 1
1185 1 6.75308 72.5639 5.2784 1.1619889546e-04 1
1186 1 7.179 74.2751 3.51932 4.05764e-05 1
178 1 5.9006 76.41 0.00117485 3.9341183243e-06 1
179 1 6.32782 78.1186 1.76025 2.15290609e-06 1
180 1 2.48895 77.2639 0.00117485 3.8806303243e-06 1
181 1 4.19497 76.8366 1.76025 4.42450609e-06 1
182 1 4.62193 78.5454 0.00117485 4.0361832438e-07 1
183 1 3.34316 80.6809 0.00117485 1.1091832436e-07 1
184 1 5.04912 80.2539 1.76025 3.6220609001e-07 1
185 1 2.91605 78.9723 1.76025 1.20905009e-06 1
186 1 0.782668 77.6915 1.76025 1.2445246198e-06 1
187 1 1.21 79.3996 0.00117485 3.9210767201e-07 1
189 1 1.63719 81.1079 1.76025 2.464091146e-07 1
389 1 6.75517 79.8268 0.00117485 1.6751832439e-07 1
392 1 7.18244 81.5351 1.76025 5.1106089999e-08 1
986 1 5.9006 76.41 3.51932 3.9345e-06 1
987 1 6.32782 78.1186 5.2784 2.1529954599e-06 1
988 1 2.48895 77.2639 3.51932 3.8810119999e-06 1
989 1 4.19497 76.8366 5.2784 4.4245954599e-06 1
990 1 4.62193 78.5454 3.51932 4.0399999999e-07 1
991 1 3.34316 80.6809 3.51932 1.1129999998e-07 1
992 1 5.04912 80.2539 5.2784 3.6229545995e-07 1
993 1 2.91605 78.9723 5.2784 1.2091394599e-06 1
994 1 0.782668 77.6915 5.2784 1.2446139897e-06 1
995 1 1.21 79.3996 3.51932 3.9248934763e-07 1
997 1 1.63719 81.1079 5.2784 2.4649848454e-07 1
1197 1 6.75517 79.8268 3.51932 1.679e-07 1
1200 1 7.18244 81.5351 5.2784 5.1195459945e-08 1
191 1 5.47638 81.9622 0.00117485 1.6618324385e-08 1
192 1 4.19758 84.0976 0.00117485 3.1918324383e-08 1
193 1 5.90362 83.6705 1.76025 4.3106089994e-08 1
194 1 3.77036 82.3893 1.76025 9.1406090017e-08 1
195 1 6.33083 85.3789 0.00117485 1.1886030822e-08 1
196 1 4.62481 85.806 1.76025 2.294179242e-08 1
197 1 2.06436 82.8163 0.00117485 4.1861718991e-08 1
198 1 0.785555 84.9518 0.00117485 2.9764100387e-09 1
199 1 2.49156 84.5247 1.76025 1.3565090003e-08 1
200 1 0.358357 83.2434 1.76025 4.4268416128e-08 1
201 1 2.91878 86.2331 0.00117485 2.9304601291e-08 1
202 1 1.21276 86.6602 1.76025 3.1407334391e-08 1
999 1 5.47638 81.9622 3.51932 1.7000000001e-08 1
1000 1 4.19758 84.0976 3.51932 3.2299999999e-08 1
1001 1 5.90362 83.6705 5.2784 4.319545994e-08 1
1002 1 3.77036 82.3893 5.2784 9.1495459963e-08 1
1003 1 6.33083 85.3789 3.51932 1.2267706437e-08 1
1004 1 4.62481 85.806 5.2784 2.3031162366e-08 1
1005 1 2.06436 82.8163 3.51932 4.2243394607e-08 1
1006 1 0.785555 84.9518 3.51932 3.3580856544e-09 1
1007 1 2.49156 84.5247 5.2784 1.3654459949e-08 1
1008 1 0.358357 83.2434 5.2784 4.4357786074e-08 1
1009 1 2.91878 86.2331 3.51932 2.9686276907e-08 1
1010 1 1.21276 86.6602 5.2784 3.1496704337e-08 1
203 1 12.7305 2.21223 0.00117485 5.1493243844e-09 1
204 1 12.3033 0.503843 1.76025 1.4752725649e-08 1
205 1 13.1577 3.92065 1.76025 1.2770609e-07 1
206 1 10.5973 0.930927 0.00117485 2.0240172791e-08 1
207 1 9.3185 3.06635 0.00117485 4.5547324385e-08 1
208 1 11.0245 2.63928 1.76025 3.419309e-08 1
209 1 8.89126 1.35804 1.76025 6.77558068e-09 1
210 1 11.4517 4.3477 0.00117485 6.2918324384e-08 1
211 1 9.74576 4.77467 1.76025 3.5950609e-07 1
215 1 8.03971 5.20175 0.00117485 1.9451832438e-07 1
214 1 7.61245 3.4935 1.76025 4.750609e-08 1
1011 1 12.7305 2.21223 3.51932 5.5310000001e-09 1
1012 1 12.3033 0.503843 5.2784 1.4842095595e-08 1
1013 1 13.1577 3.92065 5.2784 1.2779545995e-07 1
1014 1 10.5973 0.930927 3.51932 2.0621848407e-08 1
1015 1 9.3185 3.06635 3.51932 4.5929e-08 1
1016 1 11.0245 2.63928 5.2784 3.4282459946e-08 1
1017 1 8.89126 1.35804 5.2784 6.8649506259e-09 1
1018 1 11.4517 4.3477 3.51932 6.33e-08 1
1019 1 9.74576 4.77467 5.2784 3.5959545995e-07 1
1023 1 8.03971 5.20175 3.51932 1.949e-07 1
1022 1 7.61245 3.4935 5.2784 4.7595459946e-08 1
414 1 14.0093 0.076768 0.00117485 1.3895963453e-08 1
415 1 14.4365 1.78515 1.76025 5.0004822905e-08 1
1222 1 14.0093 0.076768 3.51932 1.4277639068e-08 1
1223 1 14.4365 1.78515 5.2784 5.0094192851e-08 1
216 1 13.5849 5.629 0.00117485 3.7641832438e-07 1
217 1 10.1729 6.48315 0.00117485 3.6631832439e-07 1
218 1 11.8788 6.05622 1.76025 8.9010609e-07 1
219 1 12.3059 7.76463 0.00117485 3.9489183244e-06 1
220 1 11.0267 9.90069 0.00117485 3.2250418324e-05 1
221 1 12.7334 9.47236 1.76025 5.08210609e-06 1
222 1 10.5999 8.19195 1.76025 4.57360609e-06 1
227 1 9.32092 10.328 1.76025 2.188240609e-05 1
224 1 8.46706 6.90995 1.76025 2.32790609e-06 1
225 1 8.89428 8.61852 0.00117485 4.0631183244e-06 1
226 1 7.61588 10.7535 0.00117485 3.9717018324e-05 1
1024 1 13.5849 5.629 3.51932 3.768e-07 1
1025 1 10.1729 6.48315 3.51932 3.667e-07 1
1026 1 11.8788 6.05622 5.2784 8.9019545994e-07 1
1027 1 12.3059 7.76463 3.51932 3.9493e-06 1
1028 1 11.0267 9.90069 3.51932 3.22508e-05 1
1029 1 12.7334 9.47236 5.2784 5.08219546e-06 1
1030 1 10.5999 8.19195 5.2784 4.5736954599e-06 1
1035 1 9.32092 10.328 5.2784 2.188249546e-05 1
1032 1 8.46706 6.90995 5.2784 2.3279954599e-06 1
1033 1 8.89428 8.61852 3.51932 4.0635e-06 1
1034 1 7.61588 10.7535 3.51932 3.97174e-05 1
426 1 14.4398 9.04493 0.00117485 1.4463618324e-05 1
428 1 14.0122 7.33709 1.76025 1.02360609e-06 1
1234 1 14.4398 9.04493 3.51932 1.4464e-05 1
1236 1 14.0122 7.33709 5.2784 1.0236954599e-06 1
229 1 13.1616 11.1792 0.00117485 9.0594218324e-05 1
230 1 11.8841 13.3115 0.00117485 5.1015251832e-04 1
231 1 13.59 12.8875 1.76025 3.5891010609e-04 1
232 1 11.4543 11.6077 1.76025 4.355330609e-05 1
233 1 12.3125 15.0162 1.76025 0.0029038601 1
234 1 9.74675 12.0378 0.00117485 2.4512711832e-04 1
235 1 8.46586 14.179 0.00117485 0.0017410277 1
236 1 10.1736 13.7433 1.76025 4.3602730609e-04 1
237 1 8.04181 12.4647 1.76025 1.1743320609e-04 1
238 1 10.6082 15.4406 0.00117485 0.003317459 1
239 1 8.89483 15.8859 1.76025 0.006491523 1
1037 1 13.1616 11.1792 3.51932 9.05946e-05 1
1038 1 11.8841 13.3115 3.51932 5.101529e-04 1
1039 1 13.59 12.8875 5.2784 3.5891019546e-04 1
1040 1 11.4543 11.6077 5.2784 4.355339546e-05 1
1041 1 12.3125 15.0162 5.2784 0.0029038602 1
1042 1 9.74675 12.0378 3.51932 2.451275e-04 1
1043 1 8.46586 14.179 3.51932 0.0017410281 1
1044 1 10.1736 13.7433 5.2784 4.3602739546e-04 1
1045 1 8.04181 12.4647 5.2784 1.1743329546e-04 1
1046 1 10.6082 15.4406 3.51932 0.0033174594 1
1047 1 8.89483 15.8859 5.2784 0.0064915231 1
442 1 14.0155 14.6023 0.00117485 7.3112001832e-04 1
443 1 14.4296 16.3259 1.76025 0.0187813401 1
1250 1 14.0155 14.6023 3.51932 7.311204e-04 1
1251 1 14.4296 16.3259 5.2784 0.0187813402 1
242 1 12.7323 16.7327 0.00117485 0.0262984 1
243 1 13.7024 20.7617 0.00117485 8.16375064 0
244 1 13.1395 18.5338 1.76025 0.5814872001 1
245 1 9.34934 17.5635 0.00117485 0.0434644886 1
246 1 11.0541 17.1526 1.76025 0.0312413767 1
247 1 11.5413 18.8909 0.00117485 0.5818542446 1
248 1 10.1235 20.7617 0.00117485 7.509629696 0
249 1 11.8891 20.7617 1.76025 3.5195606451 0
250 1 9.74735 19.226 1.76025 2.8474671755 0
251 1 7.57213 18.0096 1.76025 0.493187541 1
252 1 7.99748 19.6058 0.00117485 8.5905263002 0
1050 1 12.7323 16.7327 3.51932 0.0262984004 1
1051 1 13.7024 20.7617 3.51932 8.1637506406 0
1052 1 13.1395 18.5338 5.2784 0.5814872002 1
1053 1 9.34934 17.5635 3.51932 0.043464489 1
1054 1 11.0541 17.1526 5.2784 0.0312413768 1
1055 1 11.5413 18.8909 3.51932 0.581854245 1
1056 1 10.1235 20.7617 3.51932 7.5096296962 0
1057 1 11.8891 20.7617 5.2784 3.5195606452 0
1058 1 9.74735 19.226 5.2784 2.8474671756 0
1059 1 7.57213 18.0096 5.2784 0.4931875411 1
1060 1 7.99748 19.6058 3.51932 8.590515712 0
253 1 7.99748 21.9175 0.00117485 8.5901991102 0
254 1 9.74735 22.2973 1.76025 2.8474362055 0
255 1 8.89482 25.6375 1.76025 0.0064620331 1
256 1 11.0541 24.3707 1.76025 0.0312094642 1
257 1 13.1395 22.9895 1.76025 0.5813793701 1
258 1 12.3125 26.5071 1.76025 0.0029038601 1
259 1 14.4296 25.1974 1.76025 0.0187824501 1
260 1 11.5413 22.6325 0.00117485 0.5819409646 1
261 1 9.34934 23.9598 0.00117485 0.0434548588 1
262 1 10.6082 26.0827 0.00117485 0.003303392 1
265 1 14.0155 26.921 0.00117485 7.3635001832e-04 1
264 1 12.7323 24.7906 0.00117485 0.02629285 1
56 1 7.57213 23.5137 1.76025 0.4929321879 1
1061 1 7.99748 21.9175 3.51932 8.590188522 0
1062 1 9.74735 22.2973 5.2784 2.8474362056 0
1063 1 8.89482 25.6375 5.2784 0.0064620332 1
1064 1 11.0541 24.3707 5.2784 0.0312094643 1
1065 1 13.1395 22.9895 5.2784 0.5813793702 1
1066 1 12.3125 26.5071 5.2784 0.0029038602 1
1067 1 14.4296 25.1974 5.2784 0.0187824502 1
1068 1 11.5413 22.6325 3.51932 0.581940965 1
1069 1 9.34934 23.9598 3.51932 0.0434548592 1
1070 1 10.6082 26.0827 3.51932 0.0033033924 1
1073 1 14.0155 26.921 3.51932 7.363504e-04 1
1072 1 12.7323 24.7906 3.51932 0.0262928504 1
864 1 7.57213 23.5137 5.2784 0.492932188 1
266 1 8.04181 29.0586 1.76025 1.1615280609e-04 1
267 1 10.1736 27.78 1.76025 4.3305880609e-04 1
268 1 9.32091 31.1953 1.76025 2.195600609e-05 1
269 1 11.4543 29.9156 1.76025 4.335120609e-05 1
270 1 13.59 28.6358 1.76025 3.5658010609e-04 1
271 1 12.7334 32.051 1.76025 5.30010609e-06 1
278 1 14.4398 32.4784 0.00117485 1.4750018324e-05 1
273 1 8.46586 27.3444 0.00117485 0.0017182073 1
274 1 9.74675 29.4855 0.00117485 2.4435841832e-04 1
275 1 11.8841 28.2118 0.00117485 5.1015251832e-04 1
276 1 13.1616 30.3441 0.00117485 9.0510018324e-05 1
277 1 11.0267 31.6226 0.00117485 3.3239118324e-05 1
76 1 7.61588 30.7698 0.00117485 3.9087818324e-05 1
1074 1 8.04181 29.0586 5.2784 1.1615289546e-04 1
1075 1 10.1736 27.78 5.2784 4.3305889546e-04 1
1076 1 9.32091 31.1953 5.2784 2.195609546e-05 1
1077 1 11.4543 29.9156 5.2784 4.335129546e-05 1
1078 1 13.59 28.6358 5.2784 3.5658019546e-04 1
1079 1 12.7334 32.051 5.2784 5.30019546e-06 1
1086 1 14.4398 32.4784 3.51932 1.47504e-05 1
1081 1 8.46586 27.3444 3.51932 0.0017182077 1
1082 1 9.74675 29.4855 3.51932 2.443588e-04 1
1083 1 11.8841 28.2118 3.51932 5.101529e-04 1
1084 1 13.1616 30.3441 3.51932 9.05104e-05 1
1085 1 11.0267 31.6226 3.51932 3.32395e-05 1
884 1 7.61588 30.7698 3.51932 3.90882e-05 1
279 1 8.46706 34.6134 1.76025 2.52040609e-06 1
280 1 10.5999 33.3314 1.76025 4.51260609e-06 1
281 1 9.74576 36.7486 1.76025 2.6310609e-07 1
282 1 11.8788 35.4671 1.76025 7.7970608999e-07 1
283 1 14.0122 34.1862 1.76025 9.1010609e-07 1
284 1 13.1577 37.6027 1.76025 7.0106089999e-08 1
285 1 8.89428 32.9048 0.00117485 4.1794183244e-06 1
286 1 8.03971 36.3216 0.00117485 3.0471832437e-07 1
287 1 12.3059 33.7587 0.00117485 4.1000183244e-06 1
288 1 10.1729 35.0402 0.00117485 4.6491832437e-07 1
289 1 11.4517 37.1756 0.00117485 8.7218324383e-08 1
290 1 13.5849 35.8943 0.00117485 4.7001832438e-07 1
83 1 7.61244 38.0298 1.76025 1.3210608999e-07 1
1087 1 8.46706 34.6134 5.2784 2.5204954599e-06 1
1088 1 10.5999 33.3314 5.2784 4.5126954599e-06 1
1089 1 9.74576 36.7486 5.2784 2.6319545995e-07 1
1090 1 11.8788 35.4671 5.2784 7.7979545994e-07 1
1091 1 14.0122 34.1862 5.2784 9.1019545995e-07 1
1092 1 13.1577 37.6027 5.2784 7.0195459945e-08 1
1093 1 8.89428 32.9048 3.51932 4.1798e-06 1
1094 1 8.03971 36.3216 3.51932 3.0509999998e-07 1
1095 1 12.3059 33.7587 3.51932 4.1004e-06 1
1096 1 10.1729 35.0402 3.51932 4.6529999999e-07 1
1097 1 11.4517 37.1756 3.51932 8.7599999999e-08 1
1098 1 13.5849 35.8943 3.51932 4.7039999999e-07 1
891 1 7.61244 38.0298 5.2784 1.3219545994e-07 1
292 1 8.89126 40.1653 1.76025 2.2906090001e-08 1
293 1 11.0245 38.884 1.76025 3.5306090002e-08 1
294 1 10.1701 42.3007 1.76025 5.5306089999e-08 1
295 1 12.3033 41.0195 1.76025 6.0106090001e-08 1
296 1 14.4365 39.7382 1.76025 7.0106089998e-08 1
297 1 13.5821 43.1549 1.76025 1.0106090001e-08 1
298 1 9.3185 38.457 0.00117485 1.5301832438e-07 1
299 1 10.5973 40.5924 0.00117485 3.5718324381e-08 1
300 1 8.46405 41.8736 0.00117485 4.4518324378e-08 1
301 1 12.7305 39.3111 0.00117485 1.0018324385e-08 1
302 1 14.0093 41.4465 0.00117485 7.0018324386e-08 1
303 1 11.8761 42.7278 0.00117485 3.2518324382e-08 1
1100 1 8.89126 40.1653 5.2784 2.2995459947e-08 1
1101 1 11.0245 38.884 5.2784 3.5395459948e-08 1
1102 1 10.1701 42.3007 5.2784 5.5395459945e-08 1
1103 1 12.3033 41.0195 5.2784 6.0195459947e-08 1
1104 1 14.4365 39.7382 5.2784 7.0195459944e-08 1
1105 1 13.5821 43.1549 5.2784 1.0195459947e-08 1
1106 1 9.3185 38.457 3.51932 1.534e-07 1
1107 1 10.5973 40.5924 3.51932 3.6099999997e-08 1
1108 1 8.46405 41.8736 3.51932 4.4899999994e-08 1
1109 1 12.7305 39.3111 3.51932 1.0400000001e-08 1
1110 1 14.0093 41.4465 3.51932 7.0400000001e-08 1
1111 1 11.8761 42.7278 3.51932 3.2899999998e-08 1
304 1 8.03684 43.582 1.76025 2.6060900001e-09 1
305 1 9.31565 45.7175 1.76025 5.0106090003e-08 1
306 1 11.4489 44.4362 1.76025 5.760609e-08 1
307 1 10.5945 47.8529 1.76025 1.6150609001e-07 1
308 1 12.7277 46.5716 1.76025 5.0106090002e-08 1
316 1 14.4337 46.9987 0.00117485 7.0018324384e-08 1
310 1 14.0065 48.707 1.76025 2.3010609e-07 1
311 1 9.74285 44.0091 0.00117485 2.3218324382e-08 1
312 1 8.88848 47.4259 0.00117485 2.3781832438e-07 1
313 1 13.1549 44.8633 0.00117485 5.001832439e-08 1
314 1 11.0216 46.1445 0.00117485 2.3991832438e-07 1
315 1 12.3004 48.2799 0.00117485 4.2001832439e-07 1
113 1 7.60965 45.2904 0.00117485 3.7618324384e-08 1
1112 1 8.03684 43.582 5.2784 2.6954599461e-09 1
1113 1 9.31565 45.7175 5.2784 5.0195459949e-08 1
1114 1 11.4489 44.4362 5.2784 5.7695459946e-08 1
1115 1 10.5945 47.8529 5.2784 1.6159545995e-07 1
1116 1 12.7277 46.5716 5.2784 5.0195459948e-08 1
1124 1 14.4337 46.9987 3.51932 7.04e-08 1
1118 1 14.0065 48.707 5.2784 2.3019545995e-07 1