ITEM: TIMESTEP
0
ITEM: NUMBER OF ATOMS
404
ITEM: BOX BOUNDS pp pp pp
-1.0000000000000000e-03 1.4513331802174200e+01
-1.0000000000000000e-03 8.7079990813045001e+01
-1.0000000000000000e-03 3.5200000000000000e+00
ITEM: ATOMS id type x y z c_csym c_peratom 
1 1 5.54922 0.426863 0 8e-06 -4.45005 
2 1 6.40294 3.84176 0 4e-06 -4.45 
3 1 5.97608 2.13431 1.76 4e-06 -4.44993 
4 1 2.13431 1.28059 0 7e-06 -4.44997 
5 1 3.84176 0.853725 1.76 8e-06 -4.45007 
6 1 4.26863 2.56118 0 4e-06 -4.44993 
7 1 2.98804 4.69549 0 4e-06 -4.44994 
8 1 4.69549 4.26863 1.76 4e-06 -4.44999 
9 1 2.56118 2.98804 1.76 4e-06 -4.44987 
10 1 0 0 0 1.6e-05 -4.45014 
11 1 0.426863 1.70745 1.76 9e-06 -4.45002 
12 1 0.853725 3.4149 0 8e-06 -4.45006 
13 1 1.28059 5.12235 1.76 7e-06 -4.45004 
14 1 6.8298 5.54922 1.76 4e-06 -4.45 
15 1 5.12235 5.97608 0 4e-06 -4.45 
16 1 3.84176 8.11039 0 4e-06 -4.45 
17 1 5.54922 7.68353 1.76 4e-06 -4.45 
18 1 3.4149 6.40294 1.76 4e-06 -4.44999 
19 1 5.97608 9.39098 0 4e-06 -4.45 
20 1 4.26863 9.81784 1.76 4e-06 -4.45 
21 1 1.70745 6.8298 0 5e-06 -4.44997 
22 1 0.426863 8.96412 0 8e-06 -4.45005 
23 1 2.13431 8.53725 1.76 4e-06 -4.44993 
24 1 0 7.25667 1.76 1e-05 -4.45007 
25 1 2.56118 10.2447 0 4e-06 -4.44993 
26 1 0.853725 10.6716 1.76 8e-06 -4.45007 
27 1 4.69549 11.5253 0 4e-06 -4.45 
28 1 6.40294 11.0984 1.76 4e-06 -4.45 
29 1 6.8298 12.8059 0 4e-06 -4.45 
30 1 5.54922 14.9402 0 4e-06 -4.45 
31 1 5.12235 13.2327 1.76 4e-06 -4.45 
32 1 1.28059 12.379 0 7e-06 -4.45004 
33 1 2.98804 11.9522 1.76 4e-06 -4.44994 
34 1 3.4149 13.6596 0 4e-06 -4.44999 
35 1 2.13431 15.7939 0 4e-06 -4.44925 
36 1 3.84176 15.3671 1.76 4e-06 -4.45 
37 1 1.70745 14.0865 1.76 5e-06 -4.44997 
38 1 0 14.5133 0 1e-05 -4.45007 
39 1 0.426863 16.2208 1.76 8e-06 -4.44871 
40 1 6.40294 18.3551 0 4e-06 -4.45359 
41 1 5.97608 16.6476 1.76 4e-06 -4.44866 
42 1 6.8298 20.0625 1.76 7.17599 -4.2499 
43 1 4.26863 17.0745 0 4e-06 -4.44964 
44 1 2.98804 19.2088 0 0.980788 -4.3535 
45 1 4.69549 18.782 1.76 4e-06 -4.43286 
46 1 2.56118 17.5014 1.76 4e-06 -4.44975 
47 1 5.12235 20.4894 0 8.97911 -4.25897 
48 1 3.4149 20.9163 1.76 13.0922 -2.61189 
49 1 0.853725 17.9282 0 8e-06 -4.43133 
50 1 1.28059 19.6357 1.76 1.96158 -4.26054 
51 1 0 21.77 1.76 7.42573 -4.08349 
52 1 1.56515 23.9992 1.76 0.0899828 -4.43248 
53 1 3.69947 22.7186 1.76 7.24352 -2.66859 
54 1 2.84574 26.1335 1.76 4e-06 -4.44865 
55 1 4.98006 24.8529 1.76 4e-06 -4.43119 
56 1 7.11437 23.5723 1.76 5.41238 -4.32893 
57 1 6.26064 26.9872 1.76 4e-06 -4.44927 
58 1 1.99202 22.2917 0 8.1942 -4.27737 
59 1 3.27261 24.426 0 4e-06 -4.44219 
60 1 1.13829 25.7066 0 8e-06 -4.44837 
61 1 5.40692 23.1454 0 8.0128 -4.17428 
62 1 6.68751 25.2798 0 4e-06 -4.45065 
63 1 4.55319 26.5603 0 4e-06 -4.44835 
64 1 0.711429 27.4141 1.76 8e-06 -4.4499 
65 1 1.99202 29.5484 1.76 5e-06 -4.44997 
66 1 4.12633 28.2678 1.76 4e-06 -4.45 
67 1 3.27261 31.6827 1.76 4e-06 -4.44994 
68 1 5.40692 30.4021 1.76 4e-06 -4.45 
69 1 6.68751 32.5364 1.76 4e-06 -4.45 
70 1 2.41888 27.8409 0 4e-06 -4.44993 
71 1 0.284567 29.1215 0 1e-05 -4.45007 
72 1 1.56515 31.2558 0 7e-06 -4.45004 
73 1 5.83378 28.6947 0 4e-06 -4.45 
74 1 3.69947 29.9752 0 4e-06 -4.44999 
75 1 4.98006 32.1096 0 4e-06 -4.45 
76 1 7.11437 30.829 0 4e-06 -4.45 
77 1 1.13829 32.9633 1.76 8e-06 -4.45007 
78 1 0.284567 36.3782 1.76 1e-05 -4.45007 
79 1 2.41888 35.0976 1.76 4e-06 -4.44993 
80 1 4.55319 33.817 1.76 4e-06 -4.45 
81 1 3.69947 37.2319 1.76 4e-06 -4.44999 
82 1 5.83378 35.9513 1.76 4e-06 -4.45 
83 1 7.11437 38.0856 1.76 4e-06 -4.45 
84 1 0.711429 34.6707 0 8e-06 -4.45005 
85 1 2.84574 33.3901 0 4e-06 -4.44993 
86 1 4.12633 35.5245 0 4e-06 -4.45 
87 1 1.99202 36.805 0 5e-06 -4.44997 
88 1 6.26064 34.2439 0 4e-06 -4.45 
89 1 5.40692 37.6588 0 4e-06 -4.45 
90 1 1.56515 38.5125 1.76 7e-06 -4.45004 
91 1 0.711429 41.9274 1.76 8e-06 -4.45005 
92 1 2.84574 40.6468 1.76 4e-06 -4.44993 
93 1 4.98006 39.3662 1.76 4e-06 -4.45 
94 1 4.12633 42.7811 1.76 4e-06 -4.45 
95 1 6.26064 41.5005 1.76 4e-06 -4.45 
96 1 3.27261 38.9394 0 4e-06 -4.44994 
97 1 1.13829 40.2199 0 8e-06 -4.45007 
98 1 2.41888 42.3543 0 4e-06 -4.44993 
99 1 6.68751 39.7931 0 4e-06 -4.45 
100 1 4.55319 41.0737 0 4e-06 -4.45 
101 1 5.83378 43.208 0 4e-06 -4.45 
102 1 1.99202 44.0617 1.76 5e-06 -4.44997 
103 1 1.13829 47.4766 1.76 8e-06 -4.45007 
104 1 3.27261 46.196 1.76 4e-06 -4.44994 
105 1 5.40692 44.9154 1.76 4e-06 -4.45 
106 1 4.55319 48.3303 1.76 4e-06 -4.45 
107 1 6.68751 47.0498 1.76 4e-06 -4.45 
108 1 0.284567 43.6349 0 1e-05 -4.45007 
109 1 1.56515 45.7692 0 7e-06 -4.45004 
110 1 3.69947 44.4886 0 4e-06 -4.44999 
111 1 4.98006 46.6229 0 4e-06 -4.45 
112 1 2.84574 47.9035 0 4e-06 -4.44993 
113 1 7.11437 45.3423 0 4e-06 -4.45 
114 1 6.26064 48.7572 0 4e-06 -4.45 
115 1 0.284567 50.8915 1.76 1e-05 -4.45007 
116 1 2.41888 49.6109 1.76 4e-06 -4.44993 
117 1 1.56515 53.0258 1.76 7e-06 -4.45004 
118 1 3.69947 51.7452 1.76 4e-06 -4.44999 
119 1 5.83378 50.4647 1.76 4e-06 -4.45 
120 1 4.98006 53.8796 1.76 4e-06 -4.45 
121 1 7.11437 52.599 1.76 4e-06 -4.45 
122 1 0.711429 49.1841 0 8e-06 -4.45005 
123 1 4.12633 50.0378 0 4e-06 -4.45 
124 1 1.99202 51.3184 0 5e-06 -4.44997 
125 1 3.27261 53.4527 0 4e-06 -4.44994 
126 1 5.40692 52.1721 0 4e-06 -4.45 
127 1 6.68751 54.3064 0 4e-06 -4.45 
128 1 0.711429 56.4407 1.76 8e-06 -4.45005 
129 1 2.84574 55.1601 1.76 4e-06 -4.44993 
130 1 1.99202 58.575 1.76 5e-06 -4.44997 
131 1 4.12633 57.2945 1.76 4e-06 -4.45 
132 1 6.26064 56.0139 1.76 4e-06 -4.45 
133 1 5.40692 59.4288 1.76 4e-06 -4.44933 
134 1 1.13829 54.7333 0 8e-06 -4.45007 
135 1 2.41888 56.8676 0 4e-06 -4.44993 
136 1 0.284567 58.1482 0 1e-05 -4.45007 
137 1 4.55319 55.587 0 4e-06 -4.45 
138 1 5.83378 57.7213 0 4e-06 -4.45 
139 1 3.69947 59.0019 0 4e-06 -4.44999 
140 1 7.11437 59.8556 0 4e-06 -4.44872 
141 1 1.13829 61.9899 1.76 8e-06 -4.45231 
142 1 3.27261 60.7094 1.76 4e-06 -4.45025 
143 1 2.41888 64.1243 1.76 8.0128 -4.29748 
144 1 4.55319 62.8437 1.76 0.656866 -4.38585 
145 1 6.68751 61.5631 1.76 4e-06 -4.43533 
146 1 6.26064 63.2705 0 1.4037 -4.23352 
147 1 1.56515 60.2825 0 7e-06 -4.44874 
148 1 0.711429 63.6974 0 4.69619 -4.28676 
149 1 4.98006 61.1362 0 4e-06 -4.44688 
150 1 2.84574 62.4168 0 4e-06 -4.43393 
151 1 4.12633 64.5511 0 12.2823 -0.360516 
152 1 3.84176 66.1637 0 7.08156 -0.396825 
153 1 5.54922 65.7369 1.76 7.08154 -4.39624 
154 1 5.97608 67.4443 0 4e-06 -4.45624 
155 1 4.69549 69.5786 0 4e-06 -4.44704 
156 1 6.40294 69.1518 1.76 4e-06 -4.45014 
157 1 4.26863 67.8712 1.76 4e-06 -4.45473 
158 1 0.426863 67.0174 0 2.40002 -4.34551 
159 1 2.13431 66.5906 1.76 6.46517 -4.26124 
160 1 0 65.31 1.76 9.36471 -4.1382 
161 1 2.56118 68.298 0 4e-06 -4.43162 
162 1 1.28059 70.4323 0 7e-06 -4.44937 
163 1 2.98804 70.0055 1.76 4e-06 -4.44878 
164 1 0.853725 68.7249 1.76 8e-06 -4.45233 
165 1 6.8298 70.8592 0 4e-06 -4.45 
166 1 5.54922 72.9935 0 4e-06 -4.45 
167 1 5.12235 71.2861 1.76 4e-06 -4.45 
168 1 5.97608 74.701 1.76 4e-06 -4.45 
169 1 3.4149 71.7129 0 4e-06 -4.44999 
170 1 2.13431 73.8472 0 4e-06 -4.44993 
171 1 3.84176 73.4204 1.76 4e-06 -4.45 
172 1 1.70745 72.1398 1.76 5e-06 -4.44997 
173 1 4.26863 75.1278 0 4e-06 -4.45 
174 1 2.56118 75.5547 1.76 4e-06 -4.44993 
175 1 0 72.5667 0 1e-05 -4.45007 
176 1 0.426863 74.2741 1.76 8e-06 -4.45005 
177 1 0.853725 75.9816 0 8e-06 -4.45007 
178 1 6.40294 76.4084 0 4e-06 -4.45 
179 1 6.8298 78.1159 1.76 4e-06 -4.45 
180 1 2.98804 77.2621 0 4e-06 -4.44994 
181 1 4.69549 76.8353 1.76 4e-06 -4.45 
182 1 5.12235 78.5427 0 4e-06 -4.45 
183 1 3.84176 80.6771 0 4e-06 -4.45 
184 1 5.54922 80.2502 1.76 4e-06 -4.45 
185 1 3.4149 78.9696 1.76 4e-06 -4.44999 
186 1 1.28059 77.689 1.76 7e-06 -4.45004 
187 1 1.70745 79.3965 0 5e-06 -4.44997 
188 1 0.426863 81.5308 0 8e-06 -4.45005 
189 1 2.13431 81.1039 1.76 4e-06 -4.44993 
190 1 0 79.8233 1.76 1e-05 -4.45007 
191 1 5.97608 81.9576 0 4e-06 -4.45 
192 1 4.69549 84.092 0 4e-06 -4.44993 
193 1 6.40294 83.6651 1.76 4e-06 -4.44994 
194 1 4.26863 82.3845 1.76 4e-06 -4.44999 
195 1 6.8298 85.3725 0 7e-06 -4.45004 
196 1 5.12235 85.7994 1.76 8e-06 -4.45007 
197 1 2.56118 82.8114 0 4e-06 -4.44993 
198 1 1.28059 84.9457 0 8e-06 -4.45001 
199 1 2.98804 84.5188 1.76 4e-06 -4.44987 
200 1 0.853725 83.2382 1.76 8e-06 -4.45006 
201 1 3.4149 86.2263 0 8e-06 -4.45004 
202 1 1.70745 86.6531 1.76 1.1e-05 -4.45004 
203 1 13.2327 2.13431 0 8e-06 -4.44999 
204 1 12.8059 0.426863 1.76 1.1e-05 -4.4501 
205 1 13.6596 3.84176 1.76 8e-06 -4.45005 
206 1 11.0984 0.853725 0 8e-06 -4.45001 
207 1 9.81784 2.98804 0 4e-06 -4.44994 
208 1 11.5253 2.56118 1.76 4e-06 -4.44986 
209 1 9.39098 1.28059 1.76 7e-06 -4.45004 
210 1 11.9522 4.26863 0 4e-06 -4.44992 
211 1 10.2447 4.69549 1.76 4e-06 -4.45 
212 1 7.25667 0 1.76 1e-05 -4.45007 
213 1 7.68353 1.70745 0 5e-06 -4.44997 
214 1 8.11039 3.4149 1.76 4e-06 -4.44999 
215 1 8.53725 5.12235 0 4e-06 -4.45 
216 1 14.0865 5.54922 0 1e-05 -4.45007 
217 1 10.6716 6.40294 0 4e-06 -4.44999 
218 1 12.379 5.97608 1.76 5e-06 -4.44997 
219 1 12.8059 7.68353 0 7e-06 -4.45004 
220 1 11.5253 9.81784 0 4e-06 -4.44993 
221 1 13.2327 9.39098 1.76 8e-06 -4.45007 
222 1 11.0984 8.11039 1.76 4e-06 -4.44994 
223 1 7.25667 7.25667 0 4e-06 -4.45 
224 1 8.96412 6.8298 1.76 4e-06 -4.45 
225 1 9.39098 8.53725 0 4e-06 -4.45 
226 1 8.11039 10.6716 0 4e-06 -4.45 
227 1 9.81784 10.2447 1.76 4e-06 -4.45 
228 1 7.68353 8.96412 1.76 4e-06 -4.45 
229 1 13.6596 11.0984 0 8e-06 -4.45005 
230 1 12.379 13.2327 0 5e-06 -4.44997 
231 1 14.0865 12.8059 1.76 1e-05 -4.45007 
232 1 11.9522 11.5253 1.76 4e-06 -4.44993 
233 1 12.8059 14.9402 1.76 7e-06 -4.45004 
234 1 10.2447 11.9522 0 4e-06 -4.45 
235 1 8.96412 14.0865 0 4e-06 -4.45 
236 1 10.6716 13.6596 1.76 4e-06 -4.44999 
237 1 8.53725 12.379 1.76 4e-06 -4.45 
238 1 11.0984 15.3671 0 4e-06 -4.44994 
239 1 9.39098 15.7939 1.76 4e-06 -4.44932 
240 1 7.25667 14.5133 1.76 4e-06 -4.45 
241 1 7.68353 16.2208 0 4e-06 -4.44866 
242 1 13.2327 16.6476 0 8e-06 -4.44873 
243 1 14.0865 20.0625 0 7.17229 -4.24986 
244 1 13.6596 18.3551 1.76 8e-06 -4.45365 
245 1 9.81784 17.5014 0 4e-06 -4.44982 
246 1 11.5253 17.0745 1.76 4e-06 -4.44957 
247 1 11.9522 18.782 0 4e-06 -4.43278 
248 1 10.6716 20.9163 0 13.0922 -2.61188 
249 1 12.379 20.4894 1.76 8.97911 -4.25894 
250 1 10.2447 19.2088 1.76 0.980788 -4.35356 
251 1 8.11039 17.9282 1.76 4e-06 -4.43127 
252 1 8.53725 19.6357 0 1.96157 -4.26052 
253 1 7.25667 21.77 0 7.42345 -4.08313 
254 1 9.24868 22.2917 1.76 8.19278 -4.27743 
255 1 8.39496 25.7066 1.76 4e-06 -4.4483 
256 1 10.5293 24.426 1.76 4e-06 -4.44225 
257 1 12.6636 23.1454 1.76 8.01223 -4.17463 
258 1 11.8099 26.5603 1.76 4e-06 -4.44829 
259 1 13.9442 25.2798 1.76 8e-06 -4.4507 
260 1 10.9561 22.7186 0 7.24352 -2.66857 
261 1 8.82182 23.9992 0 0.0899798 -4.43243 
262 1 10.1024 26.1335 0 4e-06 -4.44871 
263 1 14.371 23.5723 0 5.41695 -4.32898 
264 1 12.2367 24.8529 0 4e-06 -4.43112 
265 1 13.5173 26.9872 0 8e-06 -4.44933 
266 1 7.54123 29.1215 1.76 4e-06 -4.45 
267 1 9.67555 27.8409 1.76 4e-06 -4.45 
268 1 8.82182 31.2558 1.76 4e-06 -4.45 
269 1 10.9561 29.9752 1.76 4e-06 -4.44999 
270 1 13.0904 28.6947 1.76 7e-06 -4.45004 
271 1 12.2367 32.1096 1.76 4e-06 -4.44993 
272 1 14.371 30.829 1.76 1e-05 -4.45007 
273 1 7.9681 27.4141 0 4e-06 -4.44985 
274 1 9.24868 29.5484 0 4e-06 -4.45 
275 1 11.383 28.2678 0 4e-06 -4.44994 
276 1 12.6636 30.4021 0 5e-06 -4.44997 
277 1 10.5293 31.6827 0 4e-06 -4.45 
278 1 13.9442 32.5364 0 8e-06 -4.45005 
279 1 7.9681 34.6707 1.76 4e-06 -4.45 
280 1 10.1024 33.3901 1.76 4e-06 -4.45 
281 1 9.24868 36.805 1.76 4e-06 -4.45 
282 1 11.383 35.5245 1.76 4e-06 -4.44994 
283 1 13.5173 34.2439 1.76 8e-06 -4.45007 
284 1 12.6636 37.6588 1.76 5e-06 -4.44997 
285 1 8.39496 32.9633 0 4e-06 -4.45 
286 1 7.54123 36.3782 0 4e-06 -4.45 
287 1 11.8099 33.817 0 4e-06 -4.44993 
288 1 9.67555 35.0976 0 4e-06 -4.45 
289 1 10.9561 37.2319 0 4e-06 -4.44999 
290 1 13.0904 35.9513 0 7e-06 -4.45004 
291 1 14.371 38.0856 0 1e-05 -4.45007 
292 1 8.39496 40.2199 1.76 4e-06 -4.45 
293 1 10.5293 38.9394 1.76 4e-06 -4.45 
294 1 9.67555 42.3543 1.76 4e-06 -4.45 
295 1 11.8099 41.0737 1.76 4e-06 -4.44993 
296 1 13.9442 39.7931 1.76 8e-06 -4.45005 
297 1 13.0904 43.208 1.76 7e-06 -4.45004 
298 1 8.82182 38.5125 0 4e-06 -4.45 
299 1 10.1024 40.6468 0 4e-06 -4.45 
300 1 7.9681 41.9274 0 4e-06 -4.45 
301 1 12.2367 39.3662 0 4e-06 -4.44993 
302 1 13.5173 41.5005 0 8e-06 -4.45007 
303 1 11.383 42.7811 0 4e-06 -4.44994 
304 1 7.54123 43.6349 1.76 4e-06 -4.45 
305 1 8.82182 45.7692 1.76 4e-06 -4.45 
306 1 10.9561 44.4886 1.76 4e-06 -4.44999 
307 1 10.1024 47.9035 1.76 4e-06 -4.45 
308 1 12.2367 46.6229 1.76 4e-06 -4.44993 
309 1 14.371 45.3423 1.76 1e-05 -4.45007 
310 1 13.5173 48.7572 1.76 8e-06 -4.45007 
311 1 9.24868 44.0617 0 4e-06 -4.45 
312 1 8.39496 47.4766 0 4e-06 -4.45 
313 1 12.6636 44.9154 0 5e-06 -4.44997 
314 1 10.5293 46.196 0 4e-06 -4.45 
315 1 11.8099 48.3303 0 4e-06 -4.44993 
316 1 13.9442 47.0498 0 8e-06 -4.45005 
317 1 7.9681 49.1841 1.76 4e-06 -4.45 
318 1 9.24868 51.3184 1.76 4e-06 -4.45 
319 1 11.383 50.0378 1.76 4e-06 -4.44994 
320 1 10.5293 53.4527 1.76 4e-06 -4.45 
321 1 12.6636 52.1721 1.76 5e-06 -4.44997 
322 1 13.9442 54.3064 1.76 8e-06 -4.45005 
323 1 7.54123 50.8915 0 4e-06 -4.45 
324 1 9.67555 49.6109 0 4e-06 -4.45 
325 1 10.9561 51.7452 0 4e-06 -4.44999 
326 1 8.82182 53.0258 0 4e-06 -4.45 
327 1 13.0904 50.4647 0 7e-06 -4.45004 
328 1 14.371 52.599 0 1e-05 -4.45007 
329 1 12.2367 53.8796 0 4e-06 -4.44993 
330 1 8.39496 54.7333 1.76 4e-06 -4.45 
331 1 7.54123 58.1482 1.76 4e-06 -4.45 
332 1 9.67555 56.8676 1.76 4e-06 -4.45 
333 1 11.8099 55.587 1.76 4e-06 -4.44993 
334 1 10.9561 59.0019 1.76 4e-06 -4.44999 
335 1 13.0904 57.7213 1.76 7e-06 -4.45004 
336 1 14.371 59.8556 1.76 1e-05 -4.44879 
337 1 10.1024 55.1601 0 4e-06 -4.45 
338 1 7.9681 56.4407 0 4e-06 -4.45 
339 1 9.24868 58.575 0 4e-06 -4.45 
340 1 13.5173 56.0139 0 8e-06 -4.45007 
341 1 11.383 57.2945 0 4e-06 -4.44994 
342 1 12.6636 59.4288 0 5e-06 -4.4493 
343 1 8.82182 60.2825 1.76 4e-06 -4.44869 
344 1 7.9681 63.6974 1.76 4.69249 -4.28684 
345 1 10.1024 62.4168 1.76 4e-06 -4.434 
346 1 12.2367 61.1362 1.76 4e-06 -4.44681 
347 1 11.383 64.5511 1.76 12.2823 -0.360416 
348 1 13.5173 63.2705 1.76 1.40314 -4.23386 
349 1 8.39496 61.9899 0 4e-06 -4.45223 
350 1 10.5293 60.7094 0 4e-06 -4.45031 
351 1 11.8099 62.8437 0 0.656866 -4.38578 
352 1 9.67555 64.1243 0 8.0128 -4.29754 
353 1 13.9442 61.5631 0 8e-06 -4.43538 
354 1 12.8059 65.7369 0 7.08211 -4.39625 
355 1 11.5253 67.8712 0 4e-06 -4.45467 
356 1 13.2327 67.4443 1.76 8e-06 -4.45632 
357 1 11.0984 66.1637 1.76 7.08156 -0.396781 
358 1 13.6596 69.1518 0 8e-06 -4.45019 
359 1 11.9522 69.5786 1.76 4e-06 -4.44697 
360 1 7.25667 65.31 0 9.36698 -4.13799 
361 1 9.39098 66.5906 0 6.46517 -4.26132 
362 1 8.11039 68.7249 0 4e-06 -4.45226 
363 1 9.81784 68.298 1.76 4e-06 -4.43169 
364 1 7.68353 67.0174 1.76 2.39802 -4.34545 
365 1 10.2447 70.0055 0 4e-06 -4.44884 
366 1 8.53725 70.4323 1.76 4e-06 -4.44933 
367 1 12.379 71.2861 0 5e-06 -4.44997 
368 1 14.0865 70.8592 1.76 1e-05 -4.45007 
369 1 13.2327 74.701 0 8e-06 -4.45007 
370 1 12.8059 72.9935 1.76 7e-06 -4.45004 
371 1 8.96412 72.1398 0 4e-06 -4.45 
372 1 10.6716 71.7129 1.76 4e-06 -4.44999 
373 1 11.0984 73.4204 0 4e-06 -4.44994 
374 1 9.81784 75.5547 0 4e-06 -4.45 
375 1 11.5253 75.1278 1.76 4e-06 -4.44993 
376 1 9.39098 73.8472 1.76 4e-06 -4.45 
377 1 7.25667 72.5667 1.76 4e-06 -4.45 
378 1 7.68353 74.2741 0 4e-06 -4.45 
379 1 8.11039 75.9816 1.76 4e-06 -4.45 
380 1 14.0865 78.1159 0 1e-05 -4.45007 
381 1 13.6596 76.4084 1.76 8e-06 -4.45005 
382 1 11.9522 76.8353 0 4e-06 -4.44993 
383 1 10.6716 78.9696 0 4e-06 -4.44999 
384 1 12.379 78.5427 1.76 5e-06 -4.44997 
385 1 10.2447 77.2621 1.76 4e-06 -4.45 
386 1 12.8059 80.2502 0 7e-06 -4.45004 
387 1 11.0984 80.6771 1.76 4e-06 -4.44994 
388 1 8.53725 77.689 0 4e-06 -4.45 
389 1 7.25667 79.8233 0 4e-06 -4.45 
390 1 8.96412 79.3965 1.76 4e-06 -4.45 
391 1 9.39098 81.1039 0 4e-06 -4.45 
392 1 7.68353 81.5308 1.76 4e-06 -4.45 
393 1 11.5253 82.3845 0 4e-06 -4.44993 
394 1 13.2327 81.9576 1.76 8e-06 -4.45006 
395 1 13.6596 83.6651 0 8e-06 -4.44999 
396 1 12.379 85.7994 0 9e-06 -4.45004 
397 1 14.0865 85.3725 1.76 1.3e-05 -4.45012 
398 1 11.9522 84.092 1.76 4e-06 -4.44986 
399 1 8.11039 83.2382 0 4e-06 -4.44999 
400 1 9.81784 82.8114 1.76 4e-06 -4.45 
401 1 10.2447 84.5188 0 4e-06 -4.44993 
402 1 8.96412 86.6531 0 1e-05 -4.45007 
403 1 10.6716 86.2263 1.76 8e-06 -4.45004 
404 1 8.53725 84.9457 1.76 5e-06 -4.44997 
