ITEM: TIMESTEP
0
ITEM: NUMBER OF ATOMS
206
ITEM: BOX BOUNDS pp pp pp
-1.0000000000000000e-03 8.9742743439232893e+00
-1.0000000000000000e-03 7.1794194751386300e+01
-1.0000000000000000e-03 3.5200000000000000e+00
ITEM: ATOMS id type x y z c_csym c_peratom 
1 1 2.07099 1.38066 0 7e-06 -4.44997 
2 1 3.79681 1.03549 1.76 8e-06 -4.45007 
3 1 4.14197 2.76132 0 4e-06 -4.44992 
4 1 2.41615 3.10648 1.76 4e-06 -4.44987 
5 1 0 0 0 1.6e-05 -4.45014 
6 1 0.345164 1.72582 1.76 9e-06 -4.45002 
7 1 0.690329 3.45164 0 8e-06 -4.45006 
8 1 2.76132 4.8323 0 4e-06 -4.44993 
9 1 3.45164 8.28395 0 4e-06 -4.44999 
10 1 3.10648 6.55812 1.76 4e-06 -4.44994 
11 1 1.03549 5.17747 1.76 8e-06 -4.45007 
12 1 1.38066 6.90329 0 7e-06 -4.45004 
13 1 1.72582 8.62911 1.76 5e-06 -4.44997 
14 1 4.14197 11.7356 0 4e-06 -4.44999 
15 1 3.79681 10.0098 1.76 4e-06 -4.45 
16 1 2.22045e-16 8.97427 0 1e-05 -4.45007 
17 1 2.07099 10.3549 0 4e-06 -4.44992 
18 1 0.690329 12.4259 0 8e-06 -4.44878 
19 1 2.41615 12.0808 1.76 4e-06 -4.44928 
20 1 0.345164 10.7001 1.76 8e-06 -4.45006 
21 1 2.76132 13.8066 0 4e-06 -4.44576 
22 1 1.38066 15.8776 0 1.02372 -4.31999 
23 1 3.10648 15.5324 1.76 0.500091 -4.40707 
24 1 1.03549 14.1517 1.76 8e-06 -4.43462 
25 1 3.45164 17.2582 0 9.30163 7.57968 
26 1 1.87923 18.2937 1.76 7.03065 -4.43187 
27 1 1.1889 21.7454 1.76 8e-06 -4.44988 
28 1 3.25989 20.3647 1.76 4e-06 -4.47305 
29 1 0.153407 17.9485 0 7.77129 -4.18662 
30 1 1.53406 20.0195 0 7e-06 -4.46057 
31 1 3.60505 18.6389 0 8.4603 7.5444 
32 1 2.91472 22.0905 0 4e-06 -4.44658 
33 1 0.498571 25.197 1.76 8e-06 -4.45006 
34 1 2.56956 23.8163 1.76 4e-06 -4.44993 
35 1 3.95022 25.8873 1.76 4e-06 -4.45 
36 1 0.843735 23.4712 0 8e-06 -4.45007 
37 1 4.29538 24.1615 0 4e-06 -4.44999 
38 1 2.22439 25.5422 0 4e-06 -4.44992 
39 1 1.87923 27.268 1.76 5e-06 -4.44997 
40 1 1.1889 30.7196 1.76 8e-06 -4.45007 
41 1 3.25989 29.339 1.76 4e-06 -4.44994 
42 1 0.153407 26.9228 0 1e-05 -4.45007 
43 1 3.60505 27.6132 0 4e-06 -4.44999 
44 1 1.53406 28.9938 0 7e-06 -4.45004 
45 1 2.91472 31.0648 0 4e-06 -4.44993 
46 1 0.498571 34.1713 1.76 8e-06 -4.45006 
47 1 2.56956 32.7906 1.76 4e-06 -4.44993 
48 1 3.95022 34.8616 1.76 4e-06 -4.45 
49 1 0.843735 32.4455 0 8e-06 -4.45007 
50 1 2.22439 34.5164 0 4e-06 -4.44992 
51 1 4.29538 33.1358 0 4e-06 -4.44999 
52 1 1.87923 36.2423 1.76 5e-06 -4.44997 
53 1 1.1889 39.6939 1.76 8e-06 -4.45007 
54 1 3.25989 38.3132 1.76 4e-06 -4.44994 
55 1 0.153407 35.8971 0 1e-05 -4.45007 
56 1 1.53406 37.9681 0 7e-06 -4.45004 
57 1 3.60505 36.5874 0 4e-06 -4.44999 
58 1 2.91472 40.0391 0 4e-06 -4.44993 
59 1 0.498571 43.1455 1.76 8e-06 -4.45006 
60 1 2.56956 41.7649 1.76 4e-06 -4.44993 
61 1 3.95022 43.8359 1.76 4e-06 -4.45 
62 1 0.843735 41.4197 0 8e-06 -4.45007 
63 1 4.29538 42.1101 0 4e-06 -4.44999 
64 1 2.22439 43.4907 0 4e-06 -4.44992 
65 1 1.87923 45.2165 1.76 5e-06 -4.44997 
66 1 1.1889 48.6682 1.76 8e-06 -4.44868 
67 1 3.25989 47.2875 1.76 4e-06 -4.44994 
68 1 0.153407 44.8714 0 1e-05 -4.45007 
69 1 3.60505 45.5617 0 4e-06 -4.44999 
70 1 1.53406 46.9424 0 7e-06 -4.45004 
71 1 2.91472 49.0133 0 4e-06 -4.44798 
72 1 0.498571 52.1198 1.76 4.81011 -4.27596 
73 1 2.56956 50.7392 1.76 4e-06 -4.43078 
74 1 3.95022 52.8102 1.76 8.40736 -3.92191 
75 1 0.843735 50.394 0 8e-06 -4.45043 
76 1 2.22439 52.465 0 9.36398 -4.20965 
77 1 4.29538 51.0843 0 4e-06 -4.44486 
78 1 2.07099 55.2263 0 7.58956 -4.19664 
79 1 3.79681 54.8811 1.76 7.34835 -3.89913 
80 1 4.14197 56.607 0 4e-06 -4.44327 
81 1 2.41615 56.9521 1.76 4e-06 -4.43079 
82 1 -1.77636e-15 53.8456 0 7.97802 -4.18673 
83 1 0.345164 55.5715 1.76 3.41482 -4.33244 
84 1 0.690329 57.2973 0 8e-06 -4.45266 
85 1 2.76132 58.6779 0 4e-06 -4.44799 
86 1 3.45164 62.1296 0 4e-06 -4.44999 
87 1 3.10648 60.4038 1.76 4e-06 -4.44994 
88 1 1.03549 59.0231 1.76 8e-06 -4.4494 
89 1 1.38066 60.7489 0 7e-06 -4.45004 
90 1 1.72582 62.4748 1.76 5e-06 -4.44997 
91 1 4.14197 65.5812 0 4e-06 -4.44999 
92 1 3.79681 63.8554 1.76 4e-06 -4.45 
93 1 0 62.8199 0 1e-05 -4.45007 
94 1 2.07099 64.2006 0 4e-06 -4.44992 
95 1 0.690329 66.2716 0 8e-06 -4.45007 
96 1 2.41615 65.9264 1.76 4e-06 -4.44993 
97 1 0.345164 64.5457 1.76 8e-06 -4.45006 
98 1 2.76132 67.6522 0 4e-06 -4.44993 
99 1 1.38066 69.7232 0 8e-06 -4.45001 
100 1 3.10648 69.378 1.76 4e-06 -4.44986 
101 1 1.03549 67.9974 1.76 8e-06 -4.45006 
102 1 3.45164 71.1039 0 8e-06 -4.45004 
103 1 1.72582 71.449 1.76 1.1e-05 -4.45004 
104 1 5.52263 0.690329 0 8e-06 -4.45001 
105 1 7.24845 0.345164 1.76 1.1e-05 -4.4501 
106 1 7.59362 2.07099 0 8e-06 -4.45 
107 1 6.21296 4.14197 0 4e-06 -4.44993 
108 1 7.93878 3.79681 1.76 8e-06 -4.45007 
109 1 5.86779 2.41615 1.76 4e-06 -4.44986 
110 1 8.28395 5.52263 0 8e-06 -4.45006 
111 1 6.90329 7.59362 0 5e-06 -4.44997 
112 1 8.62911 7.24845 1.76 1e-05 -4.45007 
113 1 6.55812 5.86779 1.76 4e-06 -4.44992 
114 1 4.48714 4.48714 1.76 4e-06 -4.44999 
115 1 4.8323 6.21296 0 4e-06 -4.45 
116 1 5.17747 7.93878 1.76 4e-06 -4.44999 
117 1 7.59362 11.0453 0 8e-06 -4.45007 
118 1 7.24845 9.31944 1.76 7e-06 -4.45004 
119 1 7.93878 12.7711 1.76 8e-06 -4.44868 
120 1 5.52263 9.6646 0 4e-06 -4.44994 
121 1 5.86779 11.3904 1.76 4e-06 -4.44993 
122 1 6.21296 13.1162 0 4e-06 -4.44798 
123 1 8.28395 14.4969 0 8e-06 -4.45042 
124 1 8.62911 16.2227 1.76 4.81072 -4.27596 
125 1 4.8323 15.1872 0 4e-06 -4.44487 
126 1 6.55812 14.8421 1.76 4e-06 -4.43078 
127 1 4.48714 13.4614 1.76 4e-06 -4.45077 
128 1 6.90329 16.5679 0 9.36429 -4.20956 
129 1 5.17747 16.9131 1.76 9.46636 -3.9219 
130 1 5.33087 18.984 1.76 7.34835 -3.89912 
131 1 6.71153 21.055 1.76 4e-06 -4.43078 
132 1 8.78252 19.6744 1.76 3.41482 -4.33246 
133 1 4.98571 20.7099 0 4e-06 -4.44328 
134 1 7.05669 19.3292 0 7.58956 -4.19667 
135 1 8.43735 21.4002 0 8e-06 -4.45265 
136 1 4.64054 22.4357 1.76 4e-06 -4.44927 
137 1 6.0212 24.5067 1.76 4e-06 -4.44993 
138 1 8.09219 23.126 1.76 8e-06 -4.44939 
139 1 7.40186 26.5777 1.76 7e-06 -4.45004 
140 1 6.36637 22.7809 0 4e-06 -4.44799 
141 1 7.74702 24.8518 0 8e-06 -4.45007 
142 1 5.67604 26.2325 0 4e-06 -4.44994 
143 1 5.33087 27.9583 1.76 4e-06 -4.44999 
144 1 6.71153 30.0293 1.76 4e-06 -4.44992 
145 1 8.78252 28.6486 1.76 1e-05 -4.45007 
146 1 7.05669 28.3035 0 5e-06 -4.44997 
147 1 4.98571 29.6841 0 4e-06 -4.45 
148 1 8.43735 30.3745 0 8e-06 -4.45006 
149 1 4.64054 31.41 1.76 4e-06 -4.44999 
150 1 6.0212 33.4809 1.76 4e-06 -4.44993 
151 1 8.09219 32.1003 1.76 8e-06 -4.45007 
152 1 7.40186 35.5519 1.76 7e-06 -4.45004 
153 1 6.36637 31.7551 0 4e-06 -4.44993 
154 1 5.67604 35.2068 0 4e-06 -4.44994 
155 1 7.74702 33.8261 0 8e-06 -4.45007 
156 1 5.33087 36.9326 1.76 4e-06 -4.44999 
157 1 6.71153 39.0036 1.76 4e-06 -4.44992 
158 1 8.78252 37.6229 1.76 1e-05 -4.45007 
159 1 4.98571 38.6584 0 4e-06 -4.45 
160 1 7.05669 37.2778 0 5e-06 -4.44997 
161 1 8.43735 39.3487 0 8e-06 -4.45006 
162 1 4.64054 40.3842 1.76 4e-06 -4.44999 
163 1 6.0212 42.4552 1.76 4e-06 -4.44993 
164 1 8.09219 41.0746 1.76 8e-06 -4.45007 
165 1 7.40186 44.5262 1.76 7e-06 -4.45004 
166 1 6.36637 40.7294 0 4e-06 -4.44993 
167 1 7.74702 42.8004 0 8e-06 -4.45007 
168 1 5.67604 44.181 0 4e-06 -4.44994 
169 1 5.33087 45.9069 1.76 4e-06 -4.44999 
170 1 6.71153 47.9779 1.76 4e-06 -4.44927 
171 1 8.78252 46.5972 1.76 1e-05 -4.45007 
172 1 7.05669 46.252 0 5e-06 -4.44997 
173 1 4.98571 47.6327 0 4e-06 -4.45 
174 1 8.43735 48.323 0 8e-06 -4.44877 
175 1 4.64054 49.3585 1.76 4e-06 -4.45077 
176 1 6.0212 51.4295 1.76 0.500091 -4.40706 
177 1 8.09219 50.0488 1.76 8e-06 -4.43461 
178 1 7.74702 51.7747 0 1.02341 -4.32009 
179 1 6.36637 49.7037 0 4e-06 -4.44576 
180 1 5.67604 53.1553 0 9.30163 7.57975 
181 1 5.52263 54.536 0 8.4603 7.54445 
182 1 7.24845 54.1908 1.76 7.03126 -4.43193 
183 1 7.59362 55.9166 0 8e-06 -4.4606 
184 1 6.21296 57.9876 0 4e-06 -4.44658 
185 1 7.93878 57.6425 1.76 8e-06 -4.44988 
186 1 5.86779 56.2618 1.76 4e-06 -4.47304 
187 1 8.28395 59.3683 0 8e-06 -4.45006 
188 1 6.90329 61.4393 0 5e-06 -4.44997 
189 1 8.62911 61.0941 1.76 1e-05 -4.45007 
190 1 6.55812 59.7134 1.76 4e-06 -4.44992 
191 1 4.48714 58.3328 1.76 4e-06 -4.44927 
192 1 4.8323 60.0586 0 4e-06 -4.45 
193 1 5.17747 61.7844 1.76 4e-06 -4.44999 
194 1 7.59362 64.8909 0 8e-06 -4.45007 
195 1 7.24845 63.1651 1.76 7e-06 -4.45004 
196 1 7.93878 66.6167 1.76 8e-06 -4.45006 
197 1 5.52263 63.5102 0 4e-06 -4.44994 
198 1 5.86779 65.2361 1.76 4e-06 -4.44993 
199 1 6.21296 66.9619 0 4e-06 -4.44993 
200 1 8.28395 68.3426 0 8e-06 -4.45 
201 1 8.62911 70.0684 1.76 1.3e-05 -4.45011 
202 1 4.8323 69.0329 0 4e-06 -4.44993 
203 1 6.55812 68.6877 1.76 4e-06 -4.44986 
204 1 4.48714 67.3071 1.76 4e-06 -4.44999 
205 1 6.90329 70.4135 0 9e-06 -4.45004 
206 1 5.17747 70.7587 1.76 8e-06 -4.45005 
