ITEM: TIMESTEP
151
ITEM: NUMBER OF ATOMS
824
ITEM: BOX BOUNDS pp pp pp
6.1200000000000002e-04 1.7944855000000000e+01
1.1609000000000000e-02 7.8281586000000004e+01
-3.6800000000000000e-04 7.0391589999999997e+00
ITEM: ATOMS id type x y z c_csym c_PE 
414 1 3.19455 1.04468 5.28004 7.4092e-08 -4.45 
2 1 3.19455 1.04468 1.76026 7.4092e-08 -4.45 
413 1 1.46929 1.38976 3.52015 2.69602e-07 -4.44999 
1 1 1.46929 1.38977 0.000385869 2.45583e-07 -4.44999 
415 1 3.53969 2.77094 3.52015 7.99505e-07 -4.45002 
3 1 3.53971 2.77098 0.000385869 1.07376e-06 -4.45004 
416 1 1.81443 3.11611 5.28004 1.72114e-07 -4.45 
4 1 1.81443 3.11611 1.76026 1.72114e-07 -4.45 
419 1 0.0892424 3.46107 3.52015 1.03108e-06 -4.44995 
7 1 0.0892203 3.46111 0.000385869 7.01301e-07 -4.44996 
526 1 3.88493 4.49706 5.27999 2.15003e-06 -4.45007 
114 1 3.88493 4.49706 1.76031 2.15003e-06 -4.45007 
420 1 2.15947 4.84253 3.52015 2.63884e-06 -4.45006 
8 1 2.15947 4.84257 0.000385869 3.70666e-06 -4.45011 
517 1 6.64526 0.354277 5.28003 2.13805e-07 -4.45 
105 1 6.64526 0.354277 1.76027 2.13805e-07 -4.45 
516 1 4.91985 0.699543 3.52015 5.2642e-07 -4.45 
104 1 4.91985 0.69955 0.000385869 6.08436e-07 -4.45 
624 1 8.71609 1.73492 5.28003 6.18205e-07 -4.44999 
212 1 8.71609 1.73492 1.76026 6.18205e-07 -4.44999 
518 1 6.99064 2.08022 3.52015 6.16175e-08 -4.45001 
106 1 6.99064 2.08019 0.000385869 1.41433e-07 -4.44999 
521 1 5.26513 2.42561 5.28003 4.43618e-07 -4.45002 
109 1 5.26513 2.42561 1.76027 4.43618e-07 -4.45002 
520 1 7.33605 3.80613 5.28005 1.56511e-06 -4.44995 
108 1 7.33605 3.80613 1.76025 1.56511e-06 -4.44995 
519 1 5.61052 4.15148 3.52015 3.43025e-07 -4.45 
107 1 5.61056 4.15144 0.000385869 5.67369e-07 -4.44999 
423 1 0.434311 5.18756 5.28004 8.59732e-07 -4.44998 
11 1 0.434311 5.18756 1.76026 8.59732e-07 -4.44998 
527 1 4.23046 6.22287 3.52015 2.68944e-06 -4.45012 
115 1 4.23043 6.22253 0.000385869 3.01324e-06 -4.44995 
422 1 2.50453 6.56876 5.27991 1.30554e-05 -4.45022 
10 1 2.50453 6.56876 1.76039 1.30554e-05 -4.45022 
424 1 0.778985 6.91437 3.52015 1.28879e-05 -4.45005 
12 1 0.779114 6.91439 0.000385869 1.37659e-05 -4.45023 
421 1 2.85006 8.29425 3.52015 2.38967e-05 -4.45036 
9 1 2.85011 8.29343 0.000385869 1.98458e-05 -4.44994 
425 1 1.12356 8.64104 5.27964 8.86067e-05 -4.45046 
13 1 1.12356 8.64104 1.76066 8.86067e-05 -4.45046 
522 1 7.6814 5.53214 3.52015 6.15114e-06 -4.4498 
110 1 7.68138 5.53236 0.000385869 2.92578e-06 -4.44994 
525 1 5.95614 5.87715 5.28004 5.92022e-06 -4.44989 
113 1 5.95614 5.87715 1.76026 5.92022e-06 -4.44989 
524 1 8.02639 7.25898 5.27989 7.06751e-06 -4.44984 
112 1 8.02639 7.25898 1.76041 7.06751e-06 -4.44984 
523 1 6.30193 7.60308 3.52015 3.46348e-05 -4.44973 
111 1 6.30156 7.60325 0.000385869 1.17829e-05 -4.44978 
528 1 4.57649 7.94781 5.28022 2.59771e-05 -4.44989 
116 1 4.57649 7.94781 1.76008 2.59771e-05 -4.44989 
634 1 8.37083 8.98753 3.52015 6.78107e-05 -4.45062 
222 1 8.37063 8.9862 0.000385869 5.07321e-05 -4.44987 
530 1 6.64689 9.33027 5.28013 4.88587e-05 -4.44976 
118 1 6.64689 9.33027 1.76017 4.88587e-05 -4.44976 
532 1 4.92257 9.67242 3.52015 0.000166746 -4.4495 
120 1 4.92228 9.67418 0.000385869 4.13542e-05 -4.45022 
427 1 3.19683 10.0173 5.28088 0.000162223 -4.44968 
15 1 3.19683 10.0173 1.75942 0.000162223 -4.44968 
429 1 1.46982 10.3668 3.52015 0.000267106 -4.45174 
17 1 1.46874 10.364 0.000385869 0.000252426 -4.44898 
426 1 3.54404 11.7391 3.52015 0.000868592 -4.44629 
14 1 3.54223 11.7452 0.000385869 0.000540328 -4.44797 
431 1 1.82007 12.0859 5.28491 0.00224937 -4.44735 
19 1 1.82007 12.0859 1.75539 0.00224937 -4.44735 
430 1 0.0861369 12.4346 3.52015 0.00148668 -4.44869 
18 1 0.0885495 12.441 0.000385869 0.0026751 -4.45095 
539 1 3.88951 13.4673 5.27873 0.00239129 -4.43425 
127 1 3.88951 13.4673 1.76157 0.00239129 -4.43425 
433 1 2.16543 13.7933 3.52015 0.00441387 -4.42895 
21 1 2.17351 13.8289 0.000385869 0.020411 -4.46363 
436 1 0.442144 14.1365 5.2796 0.0104422 -4.42727 
24 1 0.442144 14.1365 1.7607 0.0104422 -4.42727 
638 1 8.7144 10.7157 5.28077 0.000623417 -4.45189 
226 1 8.7144 10.7157 1.75953 0.000623417 -4.45189 
529 1 6.98934 11.0599 3.52015 0.000285797 -4.45028 
117 1 6.99142 11.0596 0.000385869 0.000280195 -4.45 
533 1 5.26679 11.3994 5.27997 0.000307537 -4.44721 
121 1 5.26679 11.3994 1.76033 0.000307537 -4.44721 
531 1 7.32839 12.7923 5.27978 0.00523017 -4.45331 
119 1 7.32839 12.7923 1.76052 0.00523017 -4.45331 
534 1 5.60534 13.1287 3.52015 0.00110805 -4.43298 
122 1 5.6085 13.1245 0.000385869 0.00180283 -4.43023 
535 1 7.67477 14.5009 3.52015 5.86841 -4.30145 
123 1 7.66443 14.5048 0.000385869 5.79236 -4.30341 
537 1 4.22827 15.1901 3.52015 18.2992 -3.87865 
125 1 4.2468 15.1821 0.000385869 16.9572 -4.02003 
435 1 2.50252 15.52 5.26044 16.7383 -4.02362 
23 1 2.50252 15.52 1.77986 16.7383 -4.02362 
434 1 0.791354 15.8491 3.52015 17.819 -3.85129 
22 1 0.772404 15.8494 0.000385869 11.2984 -3.99328 
25 1 2.81149 17.09 0.000385869 79.9228 -2.88691 
538 1 5.95198 14.8705 5.27376 11.335 -4.02948 
126 1 5.95198 14.8705 1.76653 11.335 -4.02948 
536 1 8.06862 16.1537 5.27364 27.8618 -3.48568 
124 1 8.06862 16.1537 1.76666 27.8618 -3.48568 
437 1 2.8945 23.181 3.52015 38.3484 -3.41721 
541 1 4.56252 23.4849 5.28539 23.4501 -3.6439 
129 1 4.56252 23.4849 1.75491 23.4501 -3.6439 
540 1 6.22565 23.8132 3.52015 22.4815 -3.5168 
128 1 6.2683 23.8315 0.000385869 29.3367 -3.47729 
441 1 0.779066 24.4553 3.52015 17.5361 -3.69652 
29 1 0.754979 24.4898 0.000385869 23.2421 -3.52026 
438 1 2.47945 24.7957 5.29917 11.1165 -4.14821 
26 1 2.47945 24.7957 1.74113 11.1165 -4.14821 
443 1 4.21292 25.1823 3.52015 0.02394 -4.41746 
31 1 4.20217 25.1536 0.000385869 5.97173 -4.29911 
750 1 0.399699 26.1587 5.275 5.90018 -4.30484 
338 1 0.399699 26.1587 1.7653 5.90018 -4.30484 
442 1 2.13318 26.4996 3.52015 0.0105307 -4.45658 
30 1 2.12664 26.5274 0.000385869 0.00718762 -4.429 
440 1 3.86413 26.859 5.28388 0.00398028 -4.45137 
28 1 3.86413 26.859 1.75642 0.00398028 -4.45137 
753 1 0.0651807 27.8876 3.52015 0.000879685 -4.45054 
341 1 0.0651398 27.8913 0.000385869 0.0010499 -4.45102 
439 1 1.78804 28.2311 5.27584 0.0019481 -4.45091 
27 1 1.78804 28.2311 1.76445 0.0019481 -4.45091 
444 1 3.5175 28.576 3.52015 0.001314 -4.45353 
32 1 3.51767 28.5832 0.000385869 0.000607724 -4.44998 
542 1 5.95061 25.4998 5.28059 5.82981 -4.30048 
130 1 5.95061 25.4998 1.7597 5.82981 -4.30048 
546 1 7.66494 25.8065 3.52015 5.71946 -4.1705 
134 1 7.66707 25.827 0.000385869 11.7945 -4.16593 
545 1 5.60109 27.2121 3.52015 0.00510025 -4.44995 
133 1 5.59476 27.2053 0.000385869 0.00186995 -4.45381 
543 1 7.31843 27.5598 5.27832 0.00389342 -4.4298 
131 1 7.31843 27.5598 1.76198 0.00389342 -4.4298 
548 1 5.24384 28.9302 5.28049 0.000299351 -4.45009 
136 1 5.24384 28.9302 1.75981 0.000299351 -4.45009 
552 1 6.97186 29.2818 3.52015 0.000986473 -4.44666 
140 1 6.97028 29.2784 0.000385869 0.000304157 -4.44868 
448 1 1.44729 29.9621 3.52015 0.000111192 -4.44973 
36 1 1.44789 29.9602 0.000385869 0.000316781 -4.45161 
446 1 3.17116 30.306 5.27903 0.000238229 -4.45065 
34 1 3.17116 30.306 1.76127 0.000238229 -4.45065 
445 1 1.10358 31.6909 5.28034 6.1623e-05 -4.44961 
33 1 1.10358 31.6909 1.75996 6.1623e-05 -4.44961 
450 1 2.82724 32.0347 3.52015 1.74714e-05 -4.44976 
38 1 2.82732 32.0338 0.000385869 4.67592e-05 -4.45028 
454 1 0.758071 33.4176 3.52015 2.40123e-05 -4.44974 
42 1 0.757935 33.4175 0.000385869 1.97893e-05 -4.44968 
451 1 2.48287 33.7619 5.28017 7.79581e-06 -4.44982 
39 1 2.48287 33.7619 1.76013 7.79581e-06 -4.44982 
455 1 4.2077 34.1065 3.52015 3.2538e-06 -4.45002 
43 1 4.20768 34.1062 0.000385869 9.23245e-06 -4.45015 
550 1 8.69701 29.6219 5.27973 0.00047866 -4.4487 
138 1 8.69701 29.6219 1.76057 0.00047866 -4.4487 
449 1 4.89685 30.6533 3.52015 0.000198419 -4.45062 
37 1 4.89732 30.6549 0.000385869 3.55134e-05 -4.44992 
549 1 6.62424 31.0017 5.28033 4.39884e-05 -4.45025 
137 1 6.62424 31.0017 1.75997 4.39884e-05 -4.45025 
553 1 8.35113 31.3482 3.52015 0.000156168 -4.44936 
141 1 8.35087 31.3468 0.000385869 8.03164e-05 -4.44991 
447 1 4.55217 32.3796 5.27985 4.27349e-05 -4.45028 
35 1 4.55217 32.3796 1.76045 4.27349e-05 -4.45028 
554 1 6.2782 32.7257 3.52015 2.80222e-05 -4.45045 
142 1 6.27841 32.7262 0.000385869 7.24539e-06 -4.45014 
551 1 8.00454 33.0722 5.28017 1.01391e-05 -4.45 
139 1 8.00454 33.0722 1.76013 1.01391e-05 -4.45 
763 1 0.412283 35.1432 5.28004 2.61113e-06 -4.44994 
351 1 0.412283 35.1432 1.76026 2.61113e-06 -4.44994 
456 1 2.13772 35.4883 3.52015 3.61415e-06 -4.4499 
44 1 2.13768 35.4883 0.000385869 4.08838e-06 -4.44985 
453 1 3.86283 35.8331 5.28007 8.98404e-07 -4.44995 
41 1 3.86283 35.8331 1.76023 8.98404e-07 -4.44995 
766 1 0.0667806 36.8689 3.52015 3.52042e-07 -4.45004 
354 1 0.0667983 36.869 0.000385869 2.72771e-07 -4.45002 
452 1 1.7923 37.2143 5.28002 7.82038e-07 -4.44997 
40 1 1.7923 37.2143 1.76028 7.82038e-07 -4.44997 
457 1 3.51764 37.5594 3.52015 4.06828e-07 -4.44995 
45 1 3.51763 37.5594 0.000385869 5.42047e-07 -4.44993 
461 1 1.44696 38.9403 3.52015 1.77959e-07 -4.45002 
49 1 1.44696 38.9403 0.000385869 2.02246e-07 -4.45002 
555 1 5.93301 34.4517 5.27998 8.30933e-06 -4.45017 
143 1 5.93301 34.4517 1.76032 8.30933e-06 -4.45017 
558 1 7.65869 34.7974 3.52015 3.44501e-06 -4.45015 
146 1 7.65873 34.7976 0.000385869 1.35151e-06 -4.45002 
559 1 5.58799 36.1781 3.52015 9.92047e-07 -4.45002 
147 1 5.58797 36.178 0.000385869 2.16143e-06 -4.45007 
556 1 7.31336 36.5234 5.28001 1.39522e-06 -4.45007 
144 1 7.31336 36.5234 1.76029 1.39522e-06 -4.45007 
561 1 5.24287 37.9044 5.28004 1.902e-07 -4.44997 
149 1 5.24287 37.9044 1.76026 1.902e-07 -4.44997 
565 1 6.96817 38.2496 3.52015 3.23193e-07 -4.45002 
153 1 6.96817 38.2495 0.000385869 5.43632e-07 -4.45004 
563 1 8.69361 38.5949 5.28002 7.51123e-08 -4.45005 
151 1 8.69361 38.5949 1.76027 7.51123e-08 -4.45005 
459 1 3.17234 39.2856 5.28003 2.22877e-07 -4.44997 
47 1 3.17234 39.2856 1.76027 2.22877e-07 -4.44997 
458 1 1.1017 40.6664 5.28003 1.97552e-07 -4.45005 
46 1 1.1017 40.6664 1.76027 1.97552e-07 -4.45005 
462 1 2.82712 41.0118 3.52015 4.94903e-07 -4.45002 
50 1 2.82712 41.0118 0.000385869 4.99018e-07 -4.45002 
467 1 0.756404 42.3924 3.52015 4.60335e-07 -4.45005 
55 1 0.756403 42.3924 0.000385869 4.47993e-07 -4.45005 
464 1 2.48197 42.738 5.28003 2.06126e-06 -4.45009 
52 1 2.48197 42.738 1.76027 2.06126e-06 -4.45009 
469 1 4.20731 43.0833 3.52015 1.52559e-06 -4.45003 
57 1 4.20731 43.0833 0.000385869 1.52061e-06 -4.45003 
463 1 4.89763 39.6306 3.52015 1.29497e-08 -4.44996 
51 1 4.89763 39.6306 0.000385869 4.0436e-09 -4.44995 
562 1 6.62293 39.9757 5.28004 2.98098e-07 -4.44998 
150 1 6.62293 39.9757 1.76026 2.98098e-07 -4.44998 
567 1 8.34834 40.321 3.52015 1.24458e-07 -4.45002 
155 1 8.34834 40.321 0.000385869 1.47643e-07 -4.45003 
460 1 4.55239 41.3569 5.28003 1.7573e-07 -4.44996 
48 1 4.55239 41.3569 1.76027 1.7573e-07 -4.44996 
566 1 6.27762 41.7018 3.52015 7.82016e-07 -4.44993 
154 1 6.27762 41.7018 0.000385869 7.43351e-07 -4.44993 
564 1 8.00298 42.0469 5.28003 8.59285e-07 -4.44997 
152 1 8.00298 42.0469 1.76027 8.59285e-07 -4.44997 
568 1 5.93239 43.4282 5.28003 1.34879e-06 -4.44992 
156 1 5.93239 43.4282 1.76027 1.34879e-06 -4.44992 
572 1 7.65751 43.7729 3.52015 4.95708e-06 -4.44988 
160 1 7.65751 43.7729 0.000385869 4.91883e-06 -4.44988 
776 1 0.410877 44.118 5.28003 2.64473e-06 -4.44997 
364 1 0.410877 44.118 1.76027 2.64473e-06 -4.44997 
468 1 2.13669 44.4639 3.52015 3.70727e-06 -4.45012 
56 1 2.13669 44.4639 0.000385869 3.69332e-06 -4.45012 
466 1 3.86238 44.8098 5.28003 1.10536e-05 -4.45017 
54 1 3.86238 44.8098 1.76027 1.10536e-05 -4.45017 
779 1 0.0651056 45.8435 3.52015 2.40324e-05 -4.44973 
367 1 0.0651058 45.8435 0.000385869 2.4003e-05 -4.44973 
465 1 1.79089 46.189 5.28003 8.49821e-06 -4.44995 
53 1 1.79089 46.189 1.76027 8.49821e-06 -4.44995 
470 1 3.51718 46.5357 3.52015 2.55558e-05 -4.45031 
58 1 3.51718 46.5357 0.000385869 2.55476e-05 -4.45031 
474 1 1.44424 47.9135 3.52015 0.000106438 -4.44945 
62 1 1.44424 47.9135 0.000385869 0.000106419 -4.44945 
472 1 3.17077 48.2598 5.28003 3.5995e-05 -4.45019 
60 1 3.17077 48.2598 1.76027 3.5995e-05 -4.45019 
571 1 5.58751 45.155 3.52015 4.83274e-06 -4.45004 
159 1 5.58751 45.155 0.000385869 4.82654e-06 -4.45004 
569 1 7.31223 45.4993 5.28003 1.01578e-05 -4.44981 
157 1 7.31223 45.4993 1.76027 1.01578e-05 -4.44981 
574 1 5.24308 46.8822 5.28003 5.20268e-05 -4.4504 
162 1 5.24308 46.8822 1.76027 5.20268e-05 -4.4504 
578 1 6.9678 47.2268 3.52015 1.74196e-05 -4.44998 
166 1 6.9678 47.2268 0.000385869 1.74159e-05 -4.44998 
576 1 8.69174 47.5698 5.28003 6.90411e-05 -4.44941 
164 1 8.69174 47.5698 1.76027 6.90411e-05 -4.44941 
475 1 4.89849 48.6082 3.52015 0.000162525 -4.45083 
63 1 4.89849 48.6082 0.000385869 0.000162522 -4.45083 
471 1 1.09743 49.6395 5.28003 0.000420272 -4.44881 
59 1 1.09743 49.6395 1.76027 0.000420272 -4.44881 
476 1 2.82248 49.9817 3.52015 0.000434528 -4.44942 
64 1 2.82248 49.9817 0.000385869 0.00043452 -4.44942 
480 1 0.7532 51.3712 3.52015 0.000668155 -4.44928 
68 1 0.7532 51.3712 0.000385869 0.000668156 -4.44928 
477 1 2.47493 51.704 5.28003 0.00216097 -4.44738 
65 1 2.47493 51.704 1.76027 0.00216097 -4.44738 
481 1 4.20218 52.0454 3.52015 0.00177955 -4.44699 
69 1 4.20218 52.0454 0.000385869 0.00177955 -4.44699 
789 1 0.419026 53.1125 5.28003 0.0046024 -4.45352 
377 1 0.419026 53.1125 1.76027 0.0046024 -4.45352 
482 1 2.13603 53.434 3.52015 0.00664851 -4.44262 
70 1 2.13603 53.434 0.000385869 0.0066485 -4.44262 
479 1 3.84924 53.7635 5.28003 0.0138479 -4.43869 
67 1 3.84924 53.7635 1.76027 0.0138479 -4.43869 
575 1 6.62481 48.9555 5.28003 0.000235013 -4.45055 
163 1 6.62481 48.9555 1.76027 0.000235013 -4.45055 
579 1 8.34775 49.299 3.52015 9.03728e-05 -4.44945 
167 1 8.34775 49.299 0.000385869 9.03728e-05 -4.44945 
473 1 4.55219 50.3298 5.28003 0.000180911 -4.45035 
61 1 4.55219 50.3298 1.76027 0.000180911 -4.45035 
580 1 6.2819 50.6827 3.52015 0.000945994 -4.45096 
168 1 6.2819 50.6827 0.000385869 0.000945997 -4.45096 
577 1 8.00626 51.0327 5.28003 0.000952224 -4.4509 
165 1 8.00626 51.0327 1.76027 0.000952224 -4.4509 
581 1 5.93321 52.4031 5.28003 0.00118667 -4.44964 
169 1 5.93321 52.4031 1.76027 0.00118667 -4.44964 
584 1 7.66378 52.7659 3.52015 0.00556047 -4.45461 
172 1 7.66378 52.7659 0.000385869 0.00556046 -4.45461 
792 1 0.100405 54.8472 3.52015 0.0397592 -4.4544 
380 1 0.100405 54.8472 0.000385869 0.0397592 -4.4544 
478 1 1.82369 55.1963 5.28003 0.0578252 -4.42455 
66 1 1.82369 55.1963 1.76027 0.0578252 -4.42455 
483 1 3.48268 55.51 3.52015 0.0703158 -4.41288 
71 1 3.48268 55.51 0.000385869 0.0703158 -4.41288 
487 1 1.51555 57.0204 3.52015 0.549655 -4.31957 
75 1 1.51555 57.0204 0.000385869 0.549655 -4.31957 
485 1 3.09904 57.3908 5.28003 0.350181 -4.36426 
73 1 3.09904 57.3908 1.76027 0.350181 -4.36426 
585 1 5.56496 54.1154 3.52015 0.0074583 -4.44686 
173 1 5.56496 54.1154 0.000385869 0.0074583 -4.44686 
582 1 7.31298 54.4802 5.28003 0.0158274 -4.45531 
170 1 7.31298 54.4802 1.76027 0.0158274 -4.45531 
587 1 5.17903 55.8369 5.28003 0.0917339 -4.44544 
175 1 5.17903 55.8369 1.76027 0.0917339 -4.44544 
591 1 6.94611 56.1455 3.52015 0.0491996 -4.44257 
179 1 6.94611 56.1455 0.000385869 0.0491996 -4.44257 
589 1 8.77073 56.5271 5.28003 0.491229 -4.35781 
177 1 8.77073 56.5271 1.76027 0.491229 -4.35781 
489 1 4.79524 57.5341 3.52015 0.483476 -4.40837 
77 1 4.79524 57.5341 0.000385869 0.483476 -4.40837 
588 1 6.6542 57.7803 5.28003 3.42081 -4.32236 
176 1 6.6542 57.7803 1.76027 3.42081 -4.32236 
590 1 8.41099 58.1204 3.52015 8.38953 -4.10709 
178 1 8.41099 58.1204 0.000385869 8.38953 -4.10709 
484 1 1.00746 59.1615 5.28003 7.56302 -4.25225 
72 1 1.00746 59.1615 1.76027 7.56302 -4.25225 
488 1 2.83161 59.3064 3.52015 2.07376 -4.38707 
76 1 2.83161 59.3064 0.000385869 2.07376 -4.38707 
491 1 3.11227 61.2172 5.28003 0.574531 -4.33389 
79 1 3.11227 61.2172 1.76027 0.574531 -4.33389 
490 1 1.53318 61.6038 3.52015 1.09772 -4.25151 
78 1 1.53318 61.6038 0.000385869 1.09772 -4.25151 
492 1 3.50538 63.0972 3.52015 0.0744005 -4.4142 
80 1 3.50538 63.0972 0.000385869 0.0744005 -4.4142 
493 1 1.84149 63.4124 5.28003 0.0517766 -4.4243 
81 1 1.84149 63.4124 1.76027 0.0517766 -4.4243 
592 1 6.34434 59.3013 3.52015 6.42145 -4.04086 
180 1 6.34434 59.3013 0.000385867 6.42145 -4.04086 
486 1 4.62937 59.3025 5.28003 1.10023 -4.42269 
74 1 4.62937 59.3025 1.76027 1.10023 -4.42269 
700 1 8.46066 60.4407 3.52015 9.11504 -4.10739 
288 1 8.46066 60.4407 0.000385869 9.11504 -4.10739 
594 1 6.68094 60.8086 5.28003 3.55885 -4.31311 
182 1 6.68094 60.8086 1.76027 3.55885 -4.31311 
593 1 4.80879 61.0709 3.52015 0.508662 -4.40111 
181 1 4.80879 61.0709 0.000385869 0.508662 -4.40111 
701 1 8.78653 62.069 5.28003 0.864957 -4.33512 
289 1 8.78653 62.069 1.76027 0.864957 -4.33512 
595 1 6.97591 62.4387 3.52015 0.0377172 -4.44794 
183 1 6.97591 62.4387 0.00038587 0.0377171 -4.44794 
598 1 5.20457 62.7583 5.28003 0.0864797 -4.44613 
186 1 5.20457 62.7583 1.76027 0.0864797 -4.44613 
496 1 0.118465 63.7571 3.52015 0.0275619 -4.45634 
84 1 0.118465 63.7571 0.000385869 0.0275619 -4.45634 
603 1 3.874 64.8361 5.28003 0.0119063 -4.43938 
191 1 3.874 64.8361 1.76027 0.0119063 -4.43938 
497 1 2.15699 65.1692 3.52015 0.00640344 -4.44292 
85 1 2.15699 65.1692 0.000385869 0.00640344 -4.44292 
500 1 0.438497 65.491 5.28003 0.00318117 -4.45301 
88 1 0.438497 65.491 1.76027 0.00318117 -4.45301 
604 1 4.2264 66.5522 3.52015 0.0011096 -4.44775 
192 1 4.2264 66.5522 0.000385869 0.0011096 -4.44775 
499 1 2.49772 66.8959 5.28003 0.00175488 -4.44783 
87 1 2.49772 66.8959 1.76027 0.00175488 -4.44783 
501 1 0.774623 67.2304 3.52015 0.000685298 -4.44923 
89 1 0.774623 67.2304 0.000385869 0.000685291 -4.44923 
597 1 7.33498 64.1153 5.28003 0.0140584 -4.45609 
185 1 7.33498 64.1153 1.76027 0.0140584 -4.45609 
596 1 5.59192 64.4786 3.52015 0.00453792 -4.44843 
184 1 5.59192 64.4786 0.000385869 0.00453792 -4.44843 
599 1 7.6848 65.8348 3.52015 0.00420011 -4.45397 
187 1 7.6848 65.8348 0.000385869 0.0042001 -4.45397 
602 1 5.95664 66.1948 5.28003 0.00112261 -4.4497 
190 1 5.95664 66.1948 1.76027 0.00112261 -4.4497 
601 1 8.02751 67.5689 5.28003 0.000603531 -4.4505 
189 1 8.02751 67.5689 1.76027 0.000603531 -4.4505 
600 1 6.30394 67.9174 3.52015 0.00075935 -4.45074 
188 1 6.30394 67.9174 0.000385869 0.000759346 -4.45074 
605 1 4.57506 68.269 5.28003 0.000166613 -4.45055 
193 1 4.57506 68.269 1.76027 0.000166613 -4.45055 
498 1 2.84552 68.6173 3.52015 0.000272651 -4.44974 
86 1 2.84552 68.6173 0.000385869 0.000272654 -4.44974 
502 1 1.1199 68.9607 5.28003 0.000354903 -4.44894 
90 1 1.1199 68.9607 1.76027 0.000354903 -4.44894 
504 1 3.19341 70.3396 5.28003 2.74914e-05 -4.45027 
92 1 3.19341 70.3396 1.76027 2.74914e-05 -4.45027 
506 1 1.46688 70.6862 3.52015 6.92433e-05 -4.44958 
94 1 1.46688 70.6862 0.000385869 6.92544e-05 -4.44958 
503 1 3.53953 72.0642 3.52015 2.3154e-05 -4.45028 
91 1 3.53953 72.0642 0.000385869 2.31573e-05 -4.45028 
508 1 1.81338 72.4108 5.28003 5.00513e-06 -4.45 
96 1 1.81338 72.4108 1.76027 5.00513e-06 -4.45 
507 1 0.0875453 72.7564 3.52015 1.68423e-05 -4.44979 
95 1 0.0875453 72.7564 0.000385869 1.68623e-05 -4.44979 
711 1 8.36965 69.3019 3.52015 8.14028e-05 -4.44936 
299 1 8.36965 69.3019 0.000385869 8.14e-05 -4.44936 
607 1 6.64665 69.6451 5.28003 0.000154525 -4.45039 
195 1 6.64665 69.6451 1.76027 0.000154525 -4.45039 
609 1 4.92074 69.9917 3.52015 0.000136484 -4.45076 
197 1 4.92074 69.9917 0.000385869 0.000136481 -4.45076 
715 1 8.71407 71.0304 5.28003 6.11244e-05 -4.44946 
303 1 8.71407 71.0304 1.76027 6.11244e-05 -4.44946 
606 1 6.98988 71.3736 3.52015 1.17164e-05 -4.44993 
194 1 6.98988 71.3736 0.000385869 1.17174e-05 -4.44993 
610 1 5.2652 71.7181 5.28003 3.55201e-05 -4.45032 
198 1 5.2652 71.7181 1.76027 3.55201e-05 -4.45032 
608 1 7.33451 73.1009 5.28003 9.84956e-06 -4.44982 
196 1 7.33451 73.1009 1.76027 9.84956e-06 -4.44982 
616 1 3.88464 73.7903 5.28003 8.24062e-06 -4.45013 
204 1 3.88464 73.7903 1.76027 8.24062e-06 -4.45013 
510 1 2.15906 74.1361 3.52015 3.84434e-06 -4.45011 
98 1 2.15906 74.1361 0.000385869 3.85354e-06 -4.45011 
513 1 0.433284 74.4818 5.28003 1.36526e-06 -4.44999 
101 1 0.433284 74.4818 1.76027 1.36526e-06 -4.44999 
614 1 4.22957 75.5168 3.52015 7.57812e-07 -4.45001 
202 1 4.22957 75.5168 0.000385869 7.64745e-07 -4.45001 
512 1 2.50429 75.862 5.28003 2.00629e-06 -4.45006 
100 1 2.50429 75.862 1.76027 2.00629e-06 -4.45006 
511 1 0.778781 76.2075 3.52015 6.22824e-07 -4.45004 
99 1 0.778782 76.2075 0.000385869 6.39471e-07 -4.45004 
514 1 2.84941 77.5883 3.52015 2.61175e-07 -4.45001 
102 1 2.84941 77.5883 0.000385869 2.66612e-07 -4.45001 
515 1 1.12408 77.9335 5.28003 6.86093e-07 -4.45002 
103 1 1.12408 77.9335 1.76027 6.86093e-07 -4.45002 
611 1 5.60971 73.4452 3.52015 2.66973e-06 -4.45001 
199 1 5.60971 73.4452 0.000385869 2.67416e-06 -4.45001 
612 1 7.67986 74.8271 3.52015 4.00411e-06 -4.44991 
200 1 7.67986 74.8271 0.000385869 4.03485e-06 -4.44991 
615 1 5.95466 75.172 5.28003 1.5871e-06 -4.44993 
203 1 5.95466 75.172 1.76027 1.5871e-06 -4.44993 
613 1 8.02534 76.553 5.28003 4.17235e-07 -4.44999 
201 1 8.02534 76.553 1.76027 4.17235e-07 -4.44999 
617 1 6.29991 76.8982 3.52015 1.0674e-06 -4.44996 
205 1 6.29991 76.8982 0.000385869 1.11155e-06 -4.44996 
618 1 4.57465 77.2433 5.28003 2.63159e-07 -4.44998 
206 1 4.57465 77.2433 1.76027 2.63159e-07 -4.44998 
623 1 8.37075 78.2789 3.52015 1.0444e-07 -4.45001 
211 1 8.37075 78.2789 0.000385869 1.34048e-07 -4.45001 
620 1 12.1667 1.04468 5.28004 7.40919e-08 -4.45 
208 1 12.1667 1.04468 1.76026 7.40918e-08 -4.45 
619 1 10.4414 1.38976 3.52015 2.69602e-07 -4.44999 
207 1 10.4414 1.38977 0.000385869 2.45583e-07 -4.44999 
621 1 12.5118 2.77094 3.52015 7.99505e-07 -4.45002 
209 1 12.5118 2.77098 0.000385869 1.07376e-06 -4.45004 
622 1 10.7866 3.11611 5.28004 1.72114e-07 -4.45 
210 1 10.7866 3.11611 1.76026 1.72114e-07 -4.45 
625 1 9.06136 3.46107 3.52015 1.03108e-06 -4.44995 
213 1 9.06134 3.46111 0.000385869 7.01301e-07 -4.44996 
732 1 12.857 4.49706 5.27999 2.15003e-06 -4.45007 
320 1 12.857 4.49706 1.76031 2.15003e-06 -4.45007 
626 1 11.1316 4.84253 3.52015 2.63884e-06 -4.45006 
214 1 11.1316 4.84257 0.000385869 3.70666e-06 -4.45011 
723 1 15.6174 0.354277 5.28003 2.13805e-07 -4.45 
311 1 15.6174 0.354277 1.76027 2.13805e-07 -4.45 
722 1 13.892 0.699543 3.52015 5.2642e-07 -4.45 
310 1 13.892 0.69955 0.000385869 6.08436e-07 -4.45 
418 1 17.6882 1.73492 5.28003 6.18205e-07 -4.44999 
6 1 17.6882 1.73492 1.76026 6.18205e-07 -4.44999 
724 1 15.9628 2.08022 3.52015 6.16177e-08 -4.45001 
312 1 15.9628 2.08019 0.000385869 1.41434e-07 -4.44999 
727 1 14.2373 2.42561 5.28003 4.43617e-07 -4.45002 
315 1 14.2373 2.42561 1.76027 4.43617e-07 -4.45002 
726 1 16.3082 3.80613 5.28005 1.56511e-06 -4.44995 
314 1 16.3082 3.80613 1.76025 1.56511e-06 -4.44995 
725 1 14.5826 4.15148 3.52015 3.43025e-07 -4.45 
313 1 14.5827 4.15144 0.000385869 5.6737e-07 -4.44999 
629 1 9.40643 5.18756 5.28004 8.59732e-07 -4.44998 
217 1 9.40643 5.18756 1.76026 8.59732e-07 -4.44998 
733 1 13.2026 6.22287 3.52015 2.68944e-06 -4.45012 
321 1 13.2026 6.22253 0.000385869 3.01324e-06 -4.44995 
628 1 11.4766 6.56876 5.27991 1.30554e-05 -4.45022 
216 1 11.4766 6.56876 1.76039 1.30554e-05 -4.45022 
630 1 9.75111 6.91437 3.52015 1.28879e-05 -4.45005 
218 1 9.75124 6.91439 0.000385869 1.37659e-05 -4.45023 
627 1 11.8222 8.29425 3.52015 2.38967e-05 -4.45036 
215 1 11.8222 8.29343 0.000385869 1.98458e-05 -4.44994 
631 1 10.0957 8.64104 5.27964 8.86067e-05 -4.45046 
219 1 10.0957 8.64104 1.76066 8.86067e-05 -4.45046 
728 1 16.6535 5.53214 3.52015 6.15114e-06 -4.4498 
316 1 16.6535 5.53236 0.000385869 2.92578e-06 -4.44994 
731 1 14.9283 5.87715 5.28004 5.92022e-06 -4.44989 
319 1 14.9283 5.87715 1.76026 5.92022e-06 -4.44989 
730 1 16.9985 7.25898 5.27989 7.06751e-06 -4.44984 
318 1 16.9985 7.25898 1.76041 7.06751e-06 -4.44984 
729 1 15.2741 7.60308 3.52015 3.46348e-05 -4.44973 
317 1 15.2737 7.60325 0.000385869 1.17829e-05 -4.44978 
734 1 13.5486 7.94781 5.28022 2.59771e-05 -4.44989 
322 1 13.5486 7.94781 1.76008 2.59771e-05 -4.44989 
428 1 17.343 8.98753 3.52015 6.78107e-05 -4.45062 
16 1 17.3428 8.9862 0.000385869 5.07321e-05 -4.44987 
736 1 15.619 9.33027 5.28013 4.88587e-05 -4.44976 
324 1 15.619 9.33027 1.76017 4.88587e-05 -4.44976 
738 1 13.8947 9.67242 3.52015 0.000166746 -4.4495 
326 1 13.8944 9.67418 0.000385869 4.13542e-05 -4.45022 
633 1 12.1689 10.0173 5.28088 0.000162223 -4.44968 
221 1 12.1689 10.0173 1.75942 0.000162223 -4.44968 
635 1 10.4419 10.3668 3.52015 0.000267106 -4.45174 
223 1 10.4409 10.364 0.000385869 0.000252426 -4.44898 
632 1 12.5162 11.7391 3.52015 0.000868592 -4.44629 
220 1 12.5143 11.7452 0.000385869 0.000540328 -4.44797 
637 1 10.7922 12.0859 5.28491 0.00224937 -4.44735 
225 1 10.7922 12.0859 1.75539 0.00224937 -4.44735 
636 1 9.05826 12.4346 3.52015 0.00148668 -4.44869 
224 1 9.06067 12.441 0.000385869 0.0026751 -4.45095 
745 1 12.8616 13.4673 5.27873 0.00239129 -4.43425 
333 1 12.8616 13.4673 1.76157 0.00239129 -4.43425 
639 1 11.1375 13.7933 3.52015 0.00441387 -4.42895 
227 1 11.1456 13.8289 0.000385869 0.020411 -4.46363 
642 1 9.41427 14.1365 5.2796 0.0104422 -4.42727 
230 1 9.41427 14.1365 1.7607 0.0104422 -4.42727 
432 1 17.6865 10.7157 5.28077 0.000623417 -4.45189 
20 1 17.6865 10.7157 1.75953 0.000623417 -4.45189 
735 1 15.9615 11.0599 3.52015 0.000285797 -4.45028 
323 1 15.9635 11.0596 0.000385869 0.000280195 -4.45 
739 1 14.2389 11.3994 5.27997 0.000307537 -4.44721 
327 1 14.2389 11.3994 1.76033 0.000307537 -4.44721 
737 1 16.3005 12.7923 5.27978 0.00523017 -4.45331 
325 1 16.3005 12.7923 1.76052 0.00523017 -4.45331 
740 1 14.5775 13.1287 3.52015 0.00110805 -4.43298 
328 1 14.5806 13.1245 0.000385869 0.00180283 -4.43023 
741 1 16.6469 14.5009 3.52015 5.86841 -4.30145 
329 1 16.6366 14.5048 0.000385869 5.79236 -4.30341 
743 1 13.2004 15.1901 3.52015 18.2992 -3.87865 
331 1 13.2189 15.1821 0.000385869 16.9572 -4.02003 
641 1 11.4746 15.52 5.26044 16.7383 -4.02362 
229 1 11.4746 15.52 1.77986 16.7383 -4.02362 
640 1 9.76348 15.8491 3.52015 17.819 -3.85129 
228 1 9.74453 15.8494 0.000385869 11.2984 -3.99328 
231 1 11.7836 17.09 0.000385869 79.9228 -2.88691 
744 1 14.9241 14.8705 5.27376 11.335 -4.02948 
332 1 14.9241 14.8705 1.76653 11.335 -4.02948 
742 1 17.0407 16.1537 5.27364 27.8618 -3.48568 
330 1 17.0407 16.1537 1.76666 27.8618 -3.48568 
643 1 11.8666 23.181 3.52015 38.3484 -3.41721 
747 1 13.5346 23.4849 5.28539 23.4501 -3.6439 
335 1 13.5346 23.4849 1.75491 23.4501 -3.6439 
746 1 15.1978 23.8132 3.52015 22.4815 -3.5168 
334 1 15.2404 23.8315 0.000385869 29.3367 -3.47729 
647 1 9.75119 24.4553 3.52015 17.5361 -3.69652 
235 1 9.7271 24.4898 0.000385869 23.2421 -3.52026 
644 1 11.4516 24.7957 5.29917 11.1165 -4.14821 
232 1 11.4516 24.7957 1.74113 11.1165 -4.14821 
649 1 13.185 25.1823 3.52015 0.02394 -4.41746 
237 1 13.1743 25.1536 0.000385869 5.97173 -4.29911 
544 1 9.37182 26.1587 5.275 5.90018 -4.30484 
132 1 9.37182 26.1587 1.7653 5.90018 -4.30484 
648 1 11.1053 26.4996 3.52015 0.0105307 -4.45658 
236 1 11.0988 26.5274 0.000385869 0.00718762 -4.429 
646 1 12.8362 26.859 5.28388 0.00398028 -4.45137 
234 1 12.8362 26.859 1.75642 0.00398028 -4.45137 
547 1 9.0373 27.8876 3.52015 0.000879685 -4.45054 
135 1 9.03726 27.8913 0.000385869 0.0010499 -4.45102 
645 1 10.7602 28.2311 5.27584 0.0019481 -4.45091 
233 1 10.7602 28.2311 1.76445 0.0019481 -4.45091 
650 1 12.4896 28.576 3.52015 0.001314 -4.45353 
238 1 12.4898 28.5832 0.000385869 0.000607724 -4.44998 
748 1 14.9227 25.4998 5.28059 5.82981 -4.30048 
336 1 14.9227 25.4998 1.7597 5.82981 -4.30048 
752 1 16.6371 25.8065 3.52015 5.71946 -4.1705 
340 1 16.6392 25.827 0.000385869 11.7945 -4.16593 
751 1 14.5732 27.2121 3.52015 0.00510025 -4.44995 
339 1 14.5669 27.2053 0.000385869 0.00186995 -4.45381 
749 1 16.2905 27.5598 5.27832 0.00389342 -4.4298 
337 1 16.2905 27.5598 1.76198 0.00389342 -4.4298 
754 1 14.216 28.9302 5.28049 0.000299351 -4.45009 
342 1 14.216 28.9302 1.75981 0.000299351 -4.45009 
758 1 15.944 29.2818 3.52015 0.000986473 -4.44666 
346 1 15.9424 29.2784 0.000385869 0.000304157 -4.44868 
654 1 10.4194 29.9621 3.52015 0.000111192 -4.44973 
242 1 10.42 29.9602 0.000385869 0.000316781 -4.45161 
652 1 12.1433 30.306 5.27903 0.000238229 -4.45065 
240 1 12.1433 30.306 1.76127 0.000238229 -4.45065 
651 1 10.0757 31.6909 5.28034 6.1623e-05 -4.44961 
239 1 10.0757 31.6909 1.75996 6.1623e-05 -4.44961 
656 1 11.7994 32.0347 3.52015 1.74714e-05 -4.44976 
244 1 11.7994 32.0338 0.000385869 4.67592e-05 -4.45028 
660 1 9.73019 33.4176 3.52015 2.40123e-05 -4.44974 
248 1 9.73006 33.4175 0.000385869 1.97893e-05 -4.44968 
657 1 11.455 33.7619 5.28017 7.79581e-06 -4.44982 
245 1 11.455 33.7619 1.76013 7.79581e-06 -4.44982 
661 1 13.1798 34.1065 3.52015 3.2538e-06 -4.45002 
249 1 13.1798 34.1062 0.000385869 9.23245e-06 -4.45015 
756 1 17.6691 29.6219 5.27973 0.00047866 -4.4487 
344 1 17.6691 29.6219 1.76057 0.00047866 -4.4487 
655 1 13.869 30.6533 3.52015 0.000198419 -4.45062 
243 1 13.8694 30.6549 0.000385869 3.55134e-05 -4.44992 
755 1 15.5964 31.0017 5.28033 4.39884e-05 -4.45025 
343 1 15.5964 31.0017 1.75997 4.39884e-05 -4.45025 
759 1 17.3232 31.3482 3.52015 0.000156168 -4.44936 
347 1 17.323 31.3468 0.000385869 8.03164e-05 -4.44991 
653 1 13.5243 32.3796 5.27985 4.27349e-05 -4.45028 
241 1 13.5243 32.3796 1.76045 4.27349e-05 -4.45028 
760 1 15.2503 32.7257 3.52015 2.80222e-05 -4.45045 
348 1 15.2505 32.7262 0.000385869 7.24538e-06 -4.45014 
757 1 16.9767 33.0722 5.28017 1.01391e-05 -4.45 
345 1 16.9767 33.0722 1.76013 1.01391e-05 -4.45 
557 1 9.3844 35.1432 5.28004 2.61113e-06 -4.44994 
145 1 9.3844 35.1432 1.76026 2.61113e-06 -4.44994 
662 1 11.1098 35.4883 3.52015 3.61415e-06 -4.4499 
250 1 11.1098 35.4883 0.000385869 4.08838e-06 -4.44985 
659 1 12.835 35.8331 5.28007 8.98404e-07 -4.44995 
247 1 12.835 35.8331 1.76023 8.98404e-07 -4.44995 
560 1 9.0389 36.8689 3.52015 3.52042e-07 -4.45004 