ITEM: TIMESTEP
87
ITEM: NUMBER OF ATOMS
206
ITEM: BOX BOUNDS pp pp pp
5.4074537871399335e-04 8.9727335985445755e+00
1.1324761370883729e-02 7.1781869990015423e+01
-3.9556560940948366e-04 3.5193955656094094e+00
ITEM: ATOMS id type x y z c_csym c_peratom 
1 1 1.47219 1.3872 0.000357815 5.99207e-06 -4.44989 
2 1 3.19732 1.04256 1.76025 9.91558e-07 -4.44992 
3 1 3.54212 2.76926 0.000357208 5.02216e-06 -4.45004 
4 1 1.81737 3.11348 1.76025 9.19776e-06 -4.44982 
7 1 0.0923806 3.45771 0.000356723 2.45421e-05 -4.44974 
114 1 3.88658 4.49627 1.76025 5.15151e-05 -4.45041 
8 1 2.16181 4.84088 0.000356689 1.72325e-05 -4.44998 
9 1 2.84781 8.29658 0.000357687 0.000946202 -4.45096 
10 1 2.50486 6.56947 1.76025 0.000234323 -4.45056 
11 1 0.437881 5.18392 1.76025 6.76822e-05 -4.44941 
12 1 0.78195 6.91302 0.000357026 9.16219e-05 -4.44946 
13 1 1.12345 8.64668 1.76025 0.000967609 -4.45091 
115 1 4.23119 6.22211 0.000356805 0.000160673 -4.45084 
14 1 3.56497 11.729 0.000359633 0.00762527 -4.44676 
15 1 3.19661 10.0169 1.76025 0.00117485 -4.44961 
19 1 1.81689 12.0937 1.76025 0.0158455 -4.45525 
17 1 1.46596 10.3797 0.000358816 0.00558715 -4.45462 
18 1 0.0571144 12.461 0.000360126 0.040034 -4.45435 
127 1 3.95077 13.4507 1.76025 0.091766 -4.44541 
21 1 2.18406 13.7586 0.000364247 0.0499924 -4.44238 
22 1 0.71977 15.7325 0.000361241 8.35718 -4.10709 
23 1 2.47577 15.3938 1.76024 3.41218 -4.32279 
24 1 0.358955 14.1404 1.76025 0.477245 -4.35907 
25 1 2.78374 16.9157 0.000378068 6.41782 -4.04104 
125 1 4.33395 15.1487 0.000361974 0.481828 -4.40878 
26 1 2.44561 18.4225 1.76024 3.56686 -4.31274 
27 1 1.79121 21.7297 1.76025 0.013968 -4.45611 
28 1 3.92157 20.3728 1.76025 0.0859797 -4.44613 
29 1 0.664628 18.053 0.000357421 9.14856 -4.10757 
30 1 2.15013 20.0525 0.000361488 0.0373166 -4.44823 
31 1 4.31833 18.6857 0.000359801 0.50958 -4.40061 
32 1 3.5339 22.093 0.000357673 0.00441629 -4.44849 
132 1 0.340374 19.6836 1.76025 0.88808 -4.33441 
135 1 0.0358757 21.3721 0.000357018 0.0268269 -4.45649 
33 1 1.09793 25.1835 1.76025 0.000598028 -4.45048 
34 1 3.16903 23.8094 1.76025 0.00111581 -4.44971 
38 1 2.82138 25.5319 0.000357783 0.000762485 -4.45074 
36 1 1.44109 23.4494 0.000357572 0.0041533 -4.45392 
42 1 0.755385 26.9164 0.000358127 8.11247e-05 -4.44935 
39 1 2.47832 27.2595 1.76025 0.000157838 -4.45039 
40 1 1.79016 30.715 1.76025 9.37276e-06 -4.44982 
41 1 3.85951 29.3323 1.76025 3.7664e-05 -4.45031 
148 1 0.0650618 30.3705 0.000359549 1.84089e-05 -4.44979 
43 1 4.20419 27.6061 0.000358481 0.000139175 -4.45077 
44 1 2.13489 28.9879 0.000359074 1.14354e-05 -4.44991 
45 1 3.51493 31.0592 0.000359956 2.93402e-06 -4.44999 
145 1 0.410739 28.6447 1.76025 6.19876e-05 -4.44945 
46 1 1.09952 34.1667 1.76025 1.3897e-06 -4.45001 
47 1 3.17002 32.7858 1.76025 1.20413e-06 -4.44992 
50 1 2.82499 34.5119 0.000359984 2.25866e-06 -4.44997 
49 1 1.44486 32.4411 0.000360435 5.34132e-06 -4.44991 
55 1 0.754238 35.8922 0.000359055 1.82078e-07 -4.45005 
52 1 2.4799 36.2378 1.76025 3.05455e-06 -4.45006 
53 1 1.78886 39.6885 1.76025 8.54586e-06 -4.44995 
54 1 3.86036 38.3094 1.76025 1.13691e-05 -4.45016 
161 1 0.063092 39.343 0.000356595 2.45483e-05 -4.44974 
56 1 2.13465 37.9635 0.000357533 3.34982e-06 -4.45011 
57 1 4.20526 36.5831 0.000358705 2.26533e-06 -4.45 
58 1 3.51511 40.0351 0.000356581 2.41886e-05 -4.45031 
158 1 0.40879 37.6176 1.76025 3.23506e-06 -4.44998 
59 1 1.09531 43.1388 1.76025 0.00041998 -4.44881 
60 1 3.16867 41.7592 1.76025 3.66636e-05 -4.45019 
64 1 2.82039 43.481 0.000356656 0.000440252 -4.44941 
62 1 1.44215 41.4129 0.000356043 0.000105511 -4.44945 
65 1 2.47292 45.2032 1.76025 0.00215195 -4.44738 
66 1 1.82188 48.6956 1.76025 0.0579369 -4.4247 
67 1 3.84716 47.2627 1.76025 0.0138449 -4.43866 
68 1 0.751158 44.8706 0.000357509 0.000664063 -4.44931 
69 1 4.20008 45.5444 0.000358028 0.00182395 -4.44696 
70 1 2.13412 46.9334 0.000358724 0.00658588 -4.44266 
71 1 3.48087 49.0095 0.000359604 0.0695556 -4.41291 
171 1 0.417063 46.6117 1.76025 0.00465841 -4.45357 
174 1 0.0983596 48.3463 0.000359758 0.0400406 -4.45434 
72 1 1.00646 52.6476 1.76025 7.36771 -4.25156 
73 1 3.09777 50.8901 1.76025 0.34326 -4.3656 
76 1 2.83039 52.8065 0.000357611 2.09339 -4.3864 
75 1 1.51373 50.5196 0.000359214 0.534597 -4.32284 
78 1 1.53391 55.1058 0.000356084 1.13934 -4.24851 
79 1 3.11304 54.7181 1.76025 0.589726 -4.33218 
80 1 3.50686 56.5977 0.000356873 0.074262 -4.4143 
81 1 1.84263 56.9131 1.76025 0.0513055 -4.4244 
84 1 0.119599 57.2574 0.000357291 0.0268298 -4.45649 
85 1 2.15861 58.6694 0.000357287 0.00636715 -4.44295 
86 1 2.84796 62.1171 0.00035846 0.000273511 -4.44976 
87 1 2.49975 60.3958 1.76025 0.00175404 -4.44786 
88 1 0.440054 58.9911 1.76025 0.00312957 -4.45299 
89 1 0.776658 60.7303 0.000357865 0.000690031 -4.44923 
90 1 1.12238 62.4605 1.76025 0.00035601 -4.44894 
191 1 3.8758 58.3362 1.76025 0.0118327 -4.43942 
192 1 4.22847 60.0521 0.000357932 0.00109432 -4.4478 
91 1 3.54248 65.5637 0.000359164 2.40359e-05 -4.45029 
92 1 3.19617 63.8393 1.76025 2.74488e-05 -4.45028 
96 1 1.81626 65.9102 1.76025 5.57516e-06 -4.45001 
94 1 1.46966 64.1859 0.000358817 7.26615e-05 -4.44958 
95 1 0.0904114 66.2558 0.00035968 1.83716e-05 -4.44979 
204 1 3.88764 67.2895 1.76025 9.76601e-06 -4.45012 
98 1 2.16198 67.6353 0.000359884 3.50131e-06 -4.45011 
99 1 0.781631 69.7064 0.000359908 4.16623e-07 -4.45005 
100 1 2.50724 69.3609 1.76025 3.49396e-06 -4.45005 
101 1 0.436146 67.9811 1.76025 2.00735e-06 -4.45 
102 1 2.85233 71.0869 0.000359281 2.0004e-06 -4.44996 
103 1 1.12691 71.432 1.76025 1.95791e-06 -4.45 
202 1 4.23255 69.0158 0.000360065 1.57696e-06 -4.44999 
104 1 4.92241 0.697819 0.000358614 2.26816e-06 -4.45 
105 1 6.64776 0.352563 1.76025 3.05782e-06 -4.45006 
106 1 6.99301 2.07819 0.000357461 3.34673e-06 -4.45011 
107 1 5.61255 4.14984 0.000356709 2.41766e-05 -4.45031 
108 1 7.33881 3.80317 1.76025 8.54691e-06 -4.44995 
109 1 5.26731 2.4241 1.76025 1.13845e-05 -4.45016 
6 1 8.71888 1.73236 1.76025 3.24551e-06 -4.44998 
110 1 7.68552 5.52763 0.000356308 0.000105517 -4.44945 
111 1 6.30727 7.59569 0.000357065 0.000440271 -4.44941 
112 1 8.03236 7.25355 1.76025 0.000419856 -4.44881 
113 1 5.959 5.87389 1.76025 3.667e-05 -4.45019 
116 1 4.57752 7.94367 1.76025 0.000183119 -4.45034 
117 1 6.99355 11.0481 0.000359092 0.00658568 -4.44266 
118 1 6.65475 9.31791 1.76025 0.00215214 -4.44738 
119 1 7.30579 12.8104 1.76025 0.0579337 -4.42471 
120 1 4.92758 9.65914 0.000358414 0.00182359 -4.44695 
121 1 5.2805 11.3774 1.76025 0.0138462 -4.43866 
122 1 5.64679 13.1242 0.000359829 0.0695424 -4.4129 
16 1 8.37651 8.98528 0.000357918 0.000663978 -4.44931 
20 1 8.7106 10.7265 1.76025 0.00465966 -4.45357 
123 1 7.61395 14.6343 0.000359274 0.534532 -4.32284 
124 1 8.12121 16.7622 1.76025 7.36725 -4.25156 
129 1 4.4991 16.9171 1.76025 1.10371 -4.4227 
126 1 6.02989 15.0049 1.76025 0.343232 -4.3656 
128 1 6.29728 16.9212 0.000357488 2.09341 -4.3864 
130 1 6.01463 18.8328 1.76025 0.589754 -4.33218 
131 1 7.28504 21.0278 1.76025 0.0513069 -4.4244 
134 1 7.59376 19.2205 0.000356085 1.13943 -4.24849 
133 1 5.62081 20.7125 0.000356716 0.0742673 -4.4143 
136 1 5.25186 22.4509 1.76025 0.0118302 -4.43942 
137 1 6.62791 24.5105 1.76025 0.00175414 -4.44786 
138 1 8.68761 23.1058 1.76025 0.00312945 -4.45299 
139 1 8.00528 26.5752 1.76025 0.00035607 -4.44894 
140 1 6.96905 22.7841 0.000356976 0.00636593 -4.44295 
141 1 8.35101 24.845 0.000357551 0.000690037 -4.44923 
142 1 6.27971 26.2318 0.000358109 0.00027349 -4.44976 
35 1 4.5502 25.8835 1.76025 0.000166885 -4.45057 
37 1 4.8992 24.1668 0.000357596 0.00109443 -4.4478 
143 1 5.93149 27.954 1.76025 2.74638e-05 -4.45028 
144 1 7.3114 30.025 1.76025 5.5794e-06 -4.45001 
147 1 5.58519 29.6784 0.000358977 2.40214e-05 -4.45029 
146 1 7.658 28.3006 0.000358565 7.26261e-05 -4.44958 
149 1 5.24002 31.4042 1.76025 9.78326e-06 -4.45012 
51 1 4.89512 33.1305 0.00036006 1.57366e-06 -4.44999 
150 1 6.62042 33.4756 1.76025 3.47719e-06 -4.45005 
151 1 8.69152 32.0958 1.76025 1.99824e-06 -4.45 
152 1 8.00075 35.5467 1.76025 1.96621e-06 -4.45 
153 1 6.96568 31.75 0.00035991 3.51825e-06 -4.45011 
154 1 6.27534 35.2016 0.000359393 2.00544e-06 -4.44996 
155 1 8.34603 33.8212 0.000360105 4.13051e-07 -4.45005 
48 1 4.55017 34.8568 1.76025 2.82059e-08 -4.44995 
156 1 5.93035 36.9278 1.76025 9.81559e-07 -4.44992 
157 1 7.31029 38.9988 1.76025 9.2222e-06 -4.44982 
160 1 7.65548 37.2725 0.000357863 5.97005e-06 -4.44989 
159 1 5.58554 38.6545 0.000357119 5.01423e-06 -4.45004 
162 1 5.24108 40.3816 1.76025 5.15265e-05 -4.45041 
63 1 4.89647 42.1074 0.000356432 0.000160649 -4.45084 
163 1 6.62281 42.4548 1.76025 0.00023427 -4.45056 
164 1 8.68979 41.0692 1.76025 6.76337e-05 -4.44941 
165 1 8.00422 44.532 1.76025 0.000967934 -4.45091 
166 1 6.96586 40.7262 0.000356352 1.72223e-05 -4.44998 
167 1 8.34572 42.7983 0.000356608 9.1678e-05 -4.44946 
168 1 6.27985 44.1819 0.000357282 0.000946424 -4.45096 
61 1 4.55015 43.829 1.76025 0.00018318 -4.45034 
169 1 5.93105 45.9021 1.76025 0.00117442 -4.44961 
170 1 7.31078 47.979 1.76025 0.0158536 -4.45525 
173 1 5.5627 47.6143 0.000359305 0.00762332 -4.44676 
172 1 7.66171 46.265 0.000358413 0.00558541 -4.45463 
175 1 5.1769 49.336 1.76025 0.0917546 -4.44541 
77 1 4.79374 51.034 0.000361806 0.481748 -4.40877 
176 1 6.65189 51.2791 1.76024 3.41207 -4.32277 
177 1 8.76872 50.0257 1.76025 0.477312 -4.35908 
178 1 8.40789 51.6178 0.000361102 8.35711 -4.10709 
179 1 6.94361 49.6439 0.000363789 0.0499899 -4.44239 
180 1 6.34394 52.801 0.000377745 6.418 -4.04103 
74 1 4.62857 52.8024 1.76025 1.10368 -4.4227 
181 1 4.80933 54.571 0.000359886 0.509641 -4.40062 
182 1 6.68206 54.3078 1.76024 3.56692 -4.31276 
183 1 6.97754 55.9378 0.000361701 0.0373225 -4.44822 
184 1 5.59376 57.9783 0.000357913 0.00441647 -4.44849 
185 1 7.33646 57.615 1.76025 0.0139674 -4.45611 
186 1 5.20609 56.2581 1.76025 0.0859865 -4.44613 
82 1 8.46303 53.9383 0.000357537 9.14842 -4.10756 
83 1 8.78729 55.5689 1.76025 0.888024 -4.33442 
187 1 7.68658 59.3347 0.000357902 0.00415374 -4.45392 
188 1 6.30629 61.4172 0.000358159 0.00076244 -4.45074 
189 1 8.02974 61.0688 1.76025 0.000598012 -4.45048 
190 1 5.95864 59.6946 1.76025 0.00111596 -4.44971 
193 1 4.57746 61.7687 1.76025 0.000166864 -4.45057 
93 1 8.37228 62.8017 0.000358533 8.1104e-05 -4.44935 
194 1 6.99278 64.8731 0.000359475 1.144e-05 -4.44991 
195 1 6.64935 63.1448 1.76025 0.000157866 -4.45039 
196 1 7.3375 66.6003 1.76025 9.35467e-06 -4.44982 
197 1 4.92348 63.4913 0.000358865 0.000139173 -4.45077 
198 1 5.26816 65.2175 1.76025 3.76454e-05 -4.45031 
199 1 5.61274 66.9445 0.000360157 2.93217e-06 -4.44999 
97 1 8.71693 64.53 1.76025 6.20512e-05 -4.44945 
200 1 7.68281 68.3263 0.000360444 5.3509e-06 -4.44991 
201 1 8.02815 70.052 1.76025 1.38639e-06 -4.45001 
206 1 4.57749 70.7421 1.76025 2.89422e-08 -4.44995 
203 1 5.95764 68.6711 1.76025 1.20224e-06 -4.44992 
205 1 6.30268 70.3972 0.000359927 2.25851e-06 -4.44997 
5 1 8.37343 71.7775 0.000358837 1.82543e-07 -4.45005 
