ITEM: TIMESTEP
179
ITEM: NUMBER OF ATOMS
824
ITEM: BOX BOUNDS pp pp pp
4.3468670678980213e-03 1.7941120132932102e+01
2.7899905083175459e-02 7.8265295094916823e+01
1.0971884487898963e-03 7.0376938115512093e+00
ITEM: ATOMS id type x y z c_csym c_PE 
414 1 3.19677 1.0768 5.27931 6.17851e-08 -4.44999 
2 1 3.19677 1.0768 1.76099 6.17851e-08 -4.44999 
413 1 1.47228 1.42205 3.52015 2.1807e-07 -4.44999 
1 1 1.4723 1.42205 0.00185074 3.15333e-07 -4.44998 
415 1 3.5422 2.80387 3.52015 9.37785e-07 -4.45002 
3 1 3.54219 2.80387 0.00185074 1.06495e-06 -4.45004 
416 1 1.81773 3.14915 5.27932 1.88695e-07 -4.45 
4 1 1.81773 3.14915 1.76097 1.88695e-07 -4.45 
419 1 0.0933309 3.49427 3.52015 1.00377e-06 -4.44995 
7 1 0.093288 3.49427 0.00185074 9.0216e-07 -4.44996 
526 1 3.88772 4.53073 5.27925 2.08338e-06 -4.45007 
114 1 3.88772 4.53073 1.76104 2.08338e-06 -4.45007 
420 1 2.16304 4.87635 3.52015 2.63396e-06 -4.45005 
8 1 2.16303 4.87641 0.00185074 4.11671e-06 -4.45011 
517 1 6.64581 0.38609 5.27927 2.71108e-07 -4.44999 
105 1 6.64581 0.38609 1.76102 2.71108e-07 -4.44999 
516 1 4.92125 0.731523 3.52015 5.35864e-07 -4.44999 
104 1 4.92124 0.731485 0.00185074 4.16286e-07 -4.45 
624 1 8.71614 1.76736 5.2793 5.43459e-07 -4.44998 
212 1 8.71614 1.76736 1.761 5.43459e-07 -4.44998 
518 1 6.99153 2.11279 3.52015 1.68403e-07 -4.45001 
106 1 6.99149 2.11278 0.00185074 1.16054e-07 -4.44997 
521 1 5.26679 2.45836 5.27931 6.36282e-07 -4.45001 
109 1 5.26679 2.45836 1.76099 6.36282e-07 -4.45001 
520 1 7.33717 3.83948 5.27936 1.47671e-06 -4.44994 
108 1 7.33717 3.83948 1.76094 1.47671e-06 -4.44994 
519 1 5.61251 4.18495 3.52015 3.71708e-07 -4.45 
107 1 5.61255 4.18493 0.00185074 6.41759e-07 -4.44998 
423 1 0.438672 5.22151 5.2793 9.08045e-07 -4.44997 
11 1 0.438672 5.22151 1.761 9.08045e-07 -4.44997 
527 1 4.23341 6.25728 3.52015 2.64851e-06 -4.45013 
115 1 4.23344 6.25695 0.00185074 3.09841e-06 -4.44994 
422 1 2.50829 6.60337 5.27917 1.35648e-05 -4.45021 
10 1 2.50829 6.60337 1.76113 1.35648e-05 -4.45021 
424 1 0.78362 6.94916 3.52015 1.23241e-05 -4.45004 
12 1 0.783689 6.94909 0.00185074 1.30396e-05 -4.45022 
421 1 2.85405 8.3297 3.52015 2.43459e-05 -4.45035 
9 1 2.85412 8.3288 0.00185074 1.88367e-05 -4.44995 
425 1 1.12837 8.67656 5.27892 8.68881e-05 -4.45044 
13 1 1.12837 8.67656 1.76138 8.68881e-05 -4.45044 
522 1 7.68278 5.56627 3.52015 5.82091e-06 -4.4498 
110 1 7.68284 5.56647 0.00185074 3.46743e-06 -4.44994 
525 1 5.95833 5.91143 5.27931 5.492e-06 -4.44988 
113 1 5.95833 5.91143 1.76099 5.492e-06 -4.44988 
524 1 8.02802 7.29383 5.27913 7.30233e-06 -4.44984 
112 1 8.02802 7.29383 1.76117 7.30233e-06 -4.44984 
523 1 6.30431 7.63812 3.52015 3.36105e-05 -4.44971 
111 1 6.30391 7.63824 0.00185074 1.20388e-05 -4.44978 
528 1 4.57967 7.98303 5.27947 2.54181e-05 -4.44989 
116 1 4.57967 7.98303 1.76083 2.54181e-05 -4.44989 
634 1 8.37267 9.02315 3.52015 6.48017e-05 -4.4506 
222 1 8.37248 9.02183 0.00185074 5.01899e-05 -4.44986 
530 1 6.64951 9.36607 5.27939 4.85622e-05 -4.44975 
118 1 6.64951 9.36607 1.76091 4.85622e-05 -4.44975 
532 1 4.926 9.70845 3.52015 0.000165622 -4.4495 
120 1 4.9257 9.71015 0.00185074 4.15329e-05 -4.45021 
427 1 3.201 10.0535 5.28012 0.000155796 -4.44969 
15 1 3.201 10.0535 1.76018 0.000155796 -4.44969 
429 1 1.47477 10.403 3.52015 0.000257815 -4.45172 
17 1 1.47373 10.4003 0.00185074 0.000249508 -4.44899 
426 1 3.54839 11.7761 3.52015 0.00084939 -4.44632 
14 1 3.54656 11.7821 0.00185074 0.000532997 -4.44797 
431 1 1.82514 12.123 5.2841 0.00218574 -4.44739 
19 1 1.82514 12.123 1.75619 0.00218574 -4.44739 
430 1 0.0921755 12.4719 3.52015 0.00145448 -4.44872 
18 1 0.0945998 12.4782 0.00185074 0.00262442 -4.45097 
539 1 3.89409 13.5051 5.27802 0.00234808 -4.43434 
127 1 3.89409 13.5051 1.76228 0.00234808 -4.43434 
433 1 2.17079 13.8315 3.52015 0.00431632 -4.42909 
21 1 2.17882 13.8667 0.00185074 0.0200999 -4.4636 
436 1 0.448278 14.175 5.27885 0.0101711 -4.42754 
24 1 0.448278 14.175 1.76145 0.0101711 -4.42754 
638 1 8.71647 10.7521 5.28002 0.000603752 -4.45186 
226 1 8.71647 10.7521 1.76028 0.000603752 -4.45186 
529 1 6.9922 11.0965 3.52015 0.000280187 -4.45026 
117 1 6.99429 11.0962 0.00185074 0.000278587 -4.44999 
533 1 5.27043 11.4362 5.27925 0.000303659 -4.44721 
121 1 5.27043 11.4362 1.76105 0.000303659 -4.44721 
531 1 7.33159 12.8297 5.27903 0.00511469 -4.4533 
119 1 7.33159 12.8297 1.76127 0.00511469 -4.4533 
534 1 5.60927 13.1662 3.52015 0.00108915 -4.43308 
122 1 5.61239 13.1621 0.00185074 0.00178383 -4.43036 
535 1 7.67813 14.5393 3.52015 5.87143 -4.30165 
123 1 7.66789 14.5431 0.00185074 5.79655 -4.30362 
537 1 4.23333 15.2286 3.52015 12.1831 -3.87899 
125 1 4.25163 15.2207 0.00185074 16.9603 -4.02038 
435 1 2.50842 15.559 5.25986 16.7422 -4.02383 
23 1 2.50842 15.559 1.78044 16.7422 -4.02383 
434 1 0.797825 15.8884 3.52015 17.8279 -3.85142 
22 1 0.779021 15.8886 0.00185074 11.2975 -3.99344 
25 1 2.81773 17.1299 0.00185074 80.0009 -2.88664 
538 1 5.9561 14.9088 5.27308 11.3428 -4.02975 
126 1 5.9561 14.9088 1.76722 11.3428 -4.02975 
536 1 8.07144 16.1931 5.27296 27.8846 -3.48595 
124 1 8.07144 16.1931 1.76733 27.8846 -3.48595 
437 1 2.8995 23.1573 3.52015 38.3632 -3.41707 
441 1 0.784249 24.432 3.52015 17.5402 -3.697 
541 1 4.56795 23.4613 5.28475 23.4526 -3.64405 
129 1 4.56795 23.4613 1.75555 23.4526 -3.64405 
540 1 6.23158 23.7901 3.52015 22.5125 -3.51719 
128 1 6.27422 23.8083 0.00185074 29.3478 -3.47779 
29 1 0.759957 24.4664 0.00185074 23.2652 -3.52077 
438 1 2.48489 24.7725 5.29858 11.1182 -4.14833 
26 1 2.48489 24.7725 1.74172 11.1182 -4.14833 
443 1 4.21793 25.159 3.52015 0.0233179 -4.41778 
31 1 4.20756 25.1307 0.00185074 5.9757 -4.29925 
750 1 0.405821 26.1365 5.27431 5.90244 -4.30499 
338 1 0.405821 26.1365 1.76599 5.90244 -4.30499 
442 1 2.13839 26.4771 3.52015 0.0107283 -4.45674 
30 1 2.13189 26.5048 0.00185074 0.0069887 -4.42924 
440 1 3.86855 26.8368 5.28309 0.00395716 -4.45143 
28 1 3.86855 26.8368 1.75721 0.00395716 -4.45143 
753 1 0.0711639 27.8664 3.52015 0.000844992 -4.4505 
341 1 0.0711275 27.87 0.00185074 0.0010103 -4.451 
439 1 1.7931 28.2097 5.27512 0.00193723 -4.4509 
27 1 1.7931 28.2097 1.76518 0.00193723 -4.4509 
444 1 3.52163 28.5548 3.52015 0.00133233 -4.45351 
32 1 3.52174 28.5619 0.00185074 0.000584876 -4.45002 
140 1 6.973 29.2578 0.00185074 0.000308384 -4.4487 
542 1 5.95478 25.4773 5.27987 5.83161 -4.30065 
130 1 5.95478 25.4773 1.76043 5.83161 -4.30065 
546 1 7.66816 25.7847 3.52015 5.72782 -4.17058 
134 1 7.67015 25.8052 0.00185074 11.8105 -4.16598 
545 1 5.60464 27.1904 3.52015 0.00496187 -4.44999 
133 1 5.59835 27.1838 0.00185074 0.00177333 -4.45379 
543 1 7.32133 27.5384 5.27756 0.00390833 -4.4299 
131 1 7.32133 27.5384 1.76273 0.00390833 -4.4299 
548 1 5.24722 28.9093 5.2797 0.000296845 -4.45009 
136 1 5.24722 28.9093 1.7606 0.000296845 -4.45009 
552 1 6.97454 29.2611 3.52015 0.000992549 -4.4467 
448 1 1.4522 29.9417 3.52015 0.000110133 -4.44968 
36 1 1.4528 29.9398 0.00185074 0.000312114 -4.45155 
446 1 3.17516 30.2856 5.27832 0.000240317 -4.45062 
34 1 3.17516 30.2856 1.76198 0.000240317 -4.45062 
445 1 1.10827 31.6713 5.27957 6.2513e-05 -4.44959 
33 1 1.10827 31.6713 1.76073 6.2513e-05 -4.44959 
450 1 2.83108 32.0152 3.52015 1.78917e-05 -4.44974 
38 1 2.83118 32.0143 0.00185074 4.59301e-05 -4.45024 
454 1 0.762556 33.3989 3.52015 2.82558e-05 -4.44973 
42 1 0.762486 33.3986 0.00185074 2.20747e-05 -4.44968 
451 1 2.48656 33.7431 5.27941 7.45624e-06 -4.44981 
39 1 2.48656 33.7431 1.76089 7.45624e-06 -4.44981 
455 1 4.21061 34.0879 3.52015 3.50148e-06 -4.45002 
43 1 4.21052 34.0876 0.00185074 1.06111e-05 -4.45015 
550 1 8.69896 29.6013 5.27902 0.000483468 -4.44869 
138 1 8.69896 29.6013 1.76128 0.000483468 -4.44869 
449 1 4.90001 30.6331 3.52015 0.000208425 -4.45062 
37 1 4.90054 30.6347 0.00185074 3.66092e-05 -4.44995 
549 1 6.62672 30.9817 5.2796 4.44962e-05 -4.45027 
137 1 6.62672 30.9817 1.76069 4.44962e-05 -4.45027 
553 1 8.3529 31.3285 3.52015 0.000167313 -4.44937 
141 1 8.35261 31.3271 0.00185074 8.32543e-05 -4.44991 
447 1 4.5552 32.3602 5.27916 4.41905e-05 -4.45028 
35 1 4.5552 32.3602 1.76114 4.41905e-05 -4.45028 
554 1 6.28046 32.7064 3.52015 3.22141e-05 -4.45046 
142 1 6.28071 32.707 0.00185074 7.29529e-06 -4.45015 
551 1 8.00607 33.0532 5.27943 1.04514e-05 -4.44999 
139 1 8.00607 33.0532 1.76087 1.04514e-05 -4.44999 
763 1 0.41659 35.1252 5.27934 2.95117e-06 -4.44994 
351 1 0.41659 35.1252 1.76096 2.95117e-06 -4.44994 
456 1 2.14125 35.4704 3.52015 4.59547e-06 -4.44988 
44 1 2.14125 35.4705 0.00185074 5.99119e-06 -4.44985 
453 1 3.86557 35.8153 5.27933 1.01953e-06 -4.44995 
41 1 3.86557 35.8153 1.76097 1.01953e-06 -4.44995 
766 1 0.0708913 36.8516 3.52015 4.30381e-07 -4.45005 
354 1 0.0708652 36.8516 0.00185074 4.34112e-07 -4.45001 
452 1 1.79566 37.1971 5.27928 8.48821e-07 -4.44996 
40 1 1.79566 37.1971 1.76101 8.48822e-07 -4.44996 
457 1 3.52023 37.5423 3.52015 6.84638e-07 -4.44994 
45 1 3.52026 37.5425 0.00185074 1.4397e-06 -4.44992 
461 1 1.45005 38.9239 3.52015 2.03464e-07 -4.45002 
49 1 1.45004 38.9239 0.00185074 1.17864e-07 -4.45001 
555 1 5.93515 34.4332 5.27922 8.42481e-06 -4.45017 
143 1 5.93515 34.4332 1.76108 8.42481e-06 -4.45017 
558 1 7.66001 34.7791 3.52015 4.32714e-06 -4.45016 
146 1 7.6601 34.7793 0.00185074 1.42092e-06 -4.45001 
559 1 5.58994 36.1604 3.52015 1.15934e-06 -4.45001 
147 1 5.58995 36.1604 0.00185074 2.15847e-06 -4.45007 
556 1 7.3145 36.5059 5.2793 1.48859e-06 -4.45007 
144 1 7.3145 36.5059 1.761 1.48859e-06 -4.45007 
561 1 5.24462 37.8875 5.27935 2.62857e-07 -4.44997 
149 1 5.24462 37.8875 1.76095 2.62857e-07 -4.44997 
565 1 6.96912 38.2328 3.52015 4.4917e-07 -4.45003 
153 1 6.96908 38.2328 0.00185074 6.80042e-07 -4.45003 
563 1 8.6938 38.5784 5.2793 1.60987e-07 -4.45005 
151 1 8.6938 38.5784 1.761 1.60987e-07 -4.45005 
459 1 3.17463 39.2693 5.2793 2.49699e-07 -4.44997 
47 1 3.17463 39.2693 1.761 2.49699e-07 -4.44997 
458 1 1.10453 40.6508 5.27931 2.40283e-07 -4.45005 
46 1 1.10453 40.6508 1.76099 2.40283e-07 -4.45005 
462 1 2.82919 40.9963 3.52015 5.09677e-07 -4.45002 
50 1 2.82915 40.9962 0.00185074 3.76444e-07 -4.45003 
467 1 0.759165 42.3776 3.52015 6.92158e-07 -4.45004 
55 1 0.759156 42.3775 0.00185074 6.56286e-07 -4.45005 
464 1 2.4839 42.7233 5.27927 2.10216e-06 -4.45009 
52 1 2.4839 42.7233 1.76103 2.10216e-06 -4.45009 
469 1 4.20844 43.0687 3.52015 1.80143e-06 -4.45002 
57 1 4.20845 43.0687 0.00185074 1.32952e-06 -4.45004 
463 1 4.89919 39.6146 3.52015 7.16447e-08 -4.44996 
51 1 4.89918 39.6146 0.00185074 7.32217e-08 -4.44994 
562 1 6.62376 39.9598 5.27932 3.05054e-07 -4.44998 
150 1 6.62376 39.9598 1.76097 3.05054e-07 -4.44998 
567 1 8.34829 40.3052 3.52015 1.09226e-07 -4.45003 
155 1 8.34828 40.3052 0.00185074 1.37793e-07 -4.45002 
460 1 4.5537 41.3415 5.27928 4.31547e-07 -4.44997 
48 1 4.5537 41.3415 1.76102 4.31547e-07 -4.44997 
566 1 6.27817 41.6866 3.52015 9.39479e-07 -4.44993 
154 1 6.27818 41.6867 0.00185074 5.65675e-07 -4.44992 
564 1 8.00277 42.032 5.27931 6.56969e-07 -4.44996 
152 1 8.00277 42.032 1.76099 6.56969e-07 -4.44996 
568 1 5.93276 43.4137 5.27928 2.11975e-06 -4.44992 
156 1 5.93276 43.4137 1.76101 2.11975e-06 -4.44992 
572 1 7.65721 43.7586 3.52015 5.11018e-06 -4.44988 
160 1 7.65718 43.7586 0.00185074 5.03619e-06 -4.44987 
776 1 0.413587 44.104 5.27929 2.29759e-06 -4.44996 
364 1 0.413587 44.104 1.76101 2.29759e-06 -4.44996 
468 1 2.13862 44.4499 3.52015 3.76777e-06 -4.4501 
56 1 2.13866 44.4499 0.00185074 4.15006e-06 -4.45009 
466 1 3.86353 44.796 5.2793 1.07445e-05 -4.45015 
54 1 3.86353 44.796 1.761 1.07445e-05 -4.45015 
779 1 0.0678361 45.8301 3.52015 2.35913e-05 -4.44974 
367 1 0.0678332 45.8302 0.00185074 2.45875e-05 -4.44975 
465 1 1.79293 46.1758 5.27931 7.62106e-06 -4.44996 
53 1 1.79293 46.1758 1.76098 7.62106e-06 -4.44996 
470 1 3.51849 46.5226 3.52015 2.61813e-05 -4.45031 
58 1 3.51846 46.5225 0.00185074 2.31631e-05 -4.45029 
474 1 1.44647 47.901 3.52015 0.000103625 -4.44946 
62 1 1.44649 47.901 0.00185074 0.000100465 -4.44946 
472 1 3.17233 48.2475 5.27931 3.46571e-05 -4.4502 
60 1 3.17233 48.2475 1.76099 3.46571e-05 -4.4502 
571 1 5.58789 45.1412 3.52015 4.48771e-06 -4.45002 
159 1 5.5879 45.1413 0.00185074 5.04691e-06 -4.45004 
569 1 7.31191 45.4857 5.27928 1.13966e-05 -4.44982 
157 1 7.31191 45.4857 1.76101 1.13966e-05 -4.44982 
574 1 5.24364 46.8692 5.27928 5.01575e-05 -4.45039 
162 1 5.24364 46.8692 1.76102 5.01574e-05 -4.45039 
578 1 6.96763 47.2139 3.52015 1.70703e-05 -4.44997 
166 1 6.96767 47.214 0.00185074 1.79523e-05 -4.44997 
576 1 8.69092 47.5572 5.2793 6.75833e-05 -4.44941 
164 1 8.69092 47.5572 1.76099 6.75834e-05 -4.44941 
475 1 4.89936 48.5959 3.52015 0.000160325 -4.45081 
63 1 4.89933 48.5958 0.00185074 0.000154764 -4.45083 
471 1 1.10006 49.6276 5.27931 0.0004162 -4.44881 
59 1 1.10006 49.6276 1.76099 0.0004162 -4.44881 
476 1 2.82451 49.9701 3.52015 0.000420537 -4.44946 
64 1 2.82451 49.9701 0.00185075 0.000419558 -4.44944 
480 1 0.756274 51.3599 3.52015 0.000665128 -4.44927 
68 1 0.756253 51.3599 0.00185074 0.000668237 -4.44927 
477 1 2.47747 51.6929 5.2793 0.00212045 -4.4474 
65 1 2.47747 51.6929 1.761 0.00212046 -4.4474 
481 1 4.2042 52.0347 3.52015 0.00170508 -4.44705 
69 1 4.2042 52.0346 0.00185074 0.00171511 -4.44704 
789 1 0.422507 53.1016 5.27929 0.00447212 -4.45342 
377 1 0.422507 53.1016 1.761 0.00447213 -4.45342 
482 1 2.13898 53.4234 3.52015 0.00667078 -4.44257 
70 1 2.13899 53.4234 0.00185073 0.00665694 -4.44257 
479 1 3.85174 53.7532 5.2793 0.0137664 -4.43871 
67 1 3.85174 53.7532 1.761 0.0137664 -4.43871 
575 1 6.62497 48.9433 5.27929 0.000224312 -4.45052 
163 1 6.62497 48.9433 1.76101 0.000224312 -4.45052 
579 1 8.34726 49.2869 3.52015 9.01278e-05 -4.44943 
167 1 8.34726 49.2869 0.00185074 9.01978e-05 -4.44942 
473 1 4.55354 50.3183 5.27928 0.000175835 -4.45037 
61 1 4.55354 50.3183 1.76101 0.000175835 -4.45037 
580 1 6.28251 50.6712 3.52015 0.000916792 -4.45092 
168 1 6.28254 50.6712 0.00185074 0.000927486 -4.45093 
577 1 8.00617 51.0212 5.27931 0.000918389 -4.45084 
165 1 8.00617 51.0212 1.76099 0.000918388 -4.45084 
581 1 5.93448 52.3925 5.2793 0.00117598 -4.44965 
169 1 5.93448 52.3925 1.761 0.00117598 -4.44965 
584 1 7.66424 52.7551 3.52015 0.00542967 -4.45456 
172 1 7.66424 52.7551 0.00185075 0.00543642 -4.45455 
792 1 0.104388 54.8369 3.52015 0.0387767 -4.45441 
380 1 0.104385 54.8369 0.00185077 0.0387686 -4.45442 
478 1 1.82685 55.1862 5.2793 0.0575418 -4.42425 
66 1 1.82685 55.1862 1.761 0.0575417 -4.42425 
483 1 3.48546 55.5001 3.52015 0.070787 -4.4128 
71 1 3.48547 55.5001 0.00185076 0.0707891 -4.41281 
487 1 1.51899 57.0102 3.52015 0.576534 -4.31344 
75 1 1.51895 57.0102 0.00185077 0.576457 -4.31342 
485 1 3.10145 57.3819 5.27929 0.363325 -4.36191 
73 1 3.10145 57.3819 1.76101 0.363325 -4.36191 
585 1 5.56707 54.1057 3.52015 0.00718772 -4.44711 
173 1 5.56706 54.1057 0.00185076 0.00719217 -4.44711 
582 1 7.31408 54.4704 5.2793 0.0155861 -4.45546 
170 1 7.31408 54.4704 1.761 0.0155861 -4.45546 
587 1 5.18144 55.8275 5.2793 0.09156 -4.4455 
175 1 5.18144 55.8275 1.761 0.0915599 -4.4455 
591 1 6.9486 56.1372 3.52015 0.0472025 -4.44326 
179 1 6.94861 56.1372 0.00185057 0.047207 -4.44326 
589 1 8.77094 56.5184 5.27932 0.514884 -4.35576 
177 1 8.77094 56.5184 1.76098 0.514885 -4.35576 
489 1 4.79759 57.5245 3.52015 0.48368 -4.40813 
77 1 4.7976 57.5245 0.00185075 0.483542 -4.40811 
588 1 6.65599 57.772 5.27929 3.43159 -4.32163 
176 1 6.65599 57.772 1.76101 3.43159 -4.32163 
590 1 8.41431 58.1153 3.52015 8.43835 -4.10725 
178 1 8.41437 58.1152 0.00185071 8.43902 -4.10729 
484 1 1.01076 59.1758 5.2793 7.91676 -4.25288 
72 1 1.01076 59.1758 1.761 7.91676 -4.25288 
488 1 2.83445 59.2971 3.52015 2.0468 -4.38785 
76 1 2.83445 59.2971 0.0018507 2.04677 -4.38785 
491 1 3.11269 61.2081 5.27929 0.550476 -4.33638 
79 1 3.11269 61.2081 1.76101 0.550476 -4.33638 
490 1 1.53393 61.5936 3.52015 1.03386 -4.25631 
78 1 1.53389 61.5936 0.00185077 1.03376 -4.25628 
492 1 3.5049 63.0893 3.52015 0.0741057 -4.41389 
80 1 3.50489 63.0893 0.00185076 0.0741104 -4.4139 
493 1 1.84222 63.4043 5.2793 0.0524317 -4.42412 
81 1 1.84222 63.4043 1.761 0.0524316 -4.42412 
592 1 6.34465 59.2927 3.52015 6.42493 -4.0403 
180 1 6.34456 59.2927 0.00185137 6.42583 -4.04034 
486 1 4.63051 59.2937 5.27931 1.09647 -4.4226 
74 1 4.63051 59.2937 1.76099 1.09646 -4.4226 
700 1 8.45604 60.4354 3.52015 9.05586 -4.10777 
288 1 8.4561 60.4355 0.00185072 9.05583 -4.10781 
594 1 6.67856 60.8019 5.27929 3.54749 -4.31398 
182 1 6.67856 60.8019 1.761 3.54749 -4.31398 
593 1 4.80908 61.063 3.52015 0.504619 -4.40201 
181 1 4.8091 61.0629 0.00185075 0.504383 -4.40199 
701 1 8.78436 62.0618 5.27932 0.82726 -4.33678 
289 1 8.78436 62.0618 1.76098 0.827261 -4.33678 
595 1 6.97375 62.4329 3.52015 0.0377711 -4.44773 
183 1 6.97376 62.4329 0.00185056 0.0377822 -4.44773 
598 1 5.20312 62.7518 5.27929 0.0871549 -4.44607 
186 1 5.20312 62.7518 1.76101 0.0871547 -4.44607 
496 1 0.119999 63.7499 3.52015 0.0285281 -4.45611 
84 1 0.12 63.7499 0.00185077 0.0285355 -4.45611 
603 1 3.87309 64.8297 5.2793 0.0121239 -4.43928 
191 1 3.87309 64.8297 1.761 0.0121239 -4.43928 
497 1 2.15724 65.1625 3.52015 0.00642544 -4.44284 
85 1 2.15723 65.1625 0.00185073 0.00643414 -4.44284 
500 1 0.439588 65.4844 5.2793 0.00330605 -4.45302 
88 1 0.439588 65.4844 1.761 0.00330606 -4.45302 
604 1 4.22538 66.5466 3.52015 0.00115752 -4.44768 
192 1 4.22538 66.5466 0.00185074 0.00115348 -4.44768 
499 1 2.49755 66.8902 5.2793 0.00178895 -4.44778 
87 1 2.49755 66.8902 1.761 0.00178895 -4.44778 
501 1 0.775277 67.2246 3.52015 0.000684381 -4.44923 
89 1 0.775285 67.2246 0.00185074 0.000683923 -4.44923 
597 1 7.333 64.1091 5.2793 0.014091 -4.4561 
185 1 7.333 64.1091 1.761 0.014091 -4.4561 
596 1 5.59017 64.4726 3.52015 0.00475744 -4.44838 
184 1 5.59017 64.4726 0.00185076 0.00475722 -4.44838 
599 1 7.68265 65.8287 3.52015 0.0043127 -4.45402 
187 1 7.68266 65.8287 0.00185075 0.00431903 -4.45403 
602 1 5.95495 66.1891 5.27929 0.00111387 -4.44971 
190 1 5.95495 66.1891 1.76101 0.00111387 -4.44971 
601 1 8.02512 67.5633 5.27929 0.000629996 -4.45052 
189 1 8.02512 67.5633 1.761 0.000629995 -4.45052 
600 1 6.30221 67.9121 3.52015 0.000768163 -4.45075 
188 1 6.30218 67.9121 0.00185074 0.000761226 -4.45075 
605 1 4.57397 68.2639 5.2793 0.00016227 -4.45053 
193 1 4.57397 68.2639 1.76099 0.00016227 -4.45053 
498 1 2.84516 68.6123 3.52015 0.0002895 -4.44971 
86 1 2.84517 68.6123 0.00185075 0.000287449 -4.44971 
502 1 1.12032 68.9557 5.27929 0.000360493 -4.44892 
90 1 1.12032 68.9557 1.76101 0.000360493 -4.44892 
504 1 3.19308 70.3353 5.2793 2.74307e-05 -4.45026 
92 1 3.19308 70.3353 1.76099 2.74307e-05 -4.45026 
506 1 1.46733 70.682 3.52015 7.14149e-05 -4.44956 
94 1 1.46733 70.682 0.00185074 7.41724e-05 -4.44957 
503 1 3.53938 72.0606 3.52015 2.19986e-05 -4.45029 
91 1 3.53943 72.0605 0.00185074 2.43434e-05 -4.45029 
508 1 1.81403 72.4073 5.27928 5.18765e-06 -4.44999 
96 1 1.81403 72.4073 1.76102 5.18766e-06 -4.44999 
507 1 0.0890649 72.753 3.52015 1.70568e-05 -4.44979 
95 1 0.0890385 72.7531 0.00185074 1.82353e-05 -4.44977 
711 1 8.36711 69.297 3.52015 8.18992e-05 -4.44935 
299 1 8.36712 69.297 0.00185074 8.08931e-05 -4.44935 
607 1 6.64487 69.6404 5.2793 0.000160718 -4.45039 
195 1 6.64487 69.6404 1.761 0.000160718 -4.45039 
609 1 4.91969 69.9872 3.52015 0.00013715 -4.45077 
197 1 4.91968 69.9872 0.00185074 0.000136573 -4.45076 
715 1 8.71159 71.0263 5.27929 6.10844e-05 -4.44945 
303 1 8.71159 71.0263 1.76101 6.10844e-05 -4.44945 
606 1 6.98824 71.3696 3.52015 1.26231e-05 -4.44993 
194 1 6.98823 71.3696 0.00185074 1.27462e-05 -4.44993 
610 1 5.26433 71.7142 5.27931 3.7787e-05 -4.45033 
198 1 5.26433 71.7142 1.76099 3.7787e-05 -4.45033 
608 1 7.33312 73.0977 5.2793 1.03775e-05 -4.44982 
196 1 7.33312 73.0977 1.76099 1.03775e-05 -4.44982 
616 1 3.88482 73.7874 5.27928 7.96474e-06 -4.45014 
204 1 3.88482 73.7874 1.76102 7.96474e-06 -4.45014 
510 1 2.16006 74.1333 3.52015 3.44836e-06 -4.4501 
98 1 2.16004 74.1333 0.00185074 3.6373e-06 -4.45011 
513 1 0.435102 74.4792 5.27931 1.50489e-06 -4.44998 
101 1 0.435102 74.4792 1.76099 1.50489e-06 -4.44998 
614 1 4.23018 75.5147 3.52015 7.42648e-07 -4.45002 
202 1 4.23016 75.5147 0.00185074 7.66948e-07 -4.45002 
512 1 2.50569 75.8601 5.27931 1.85748e-06 -4.45007 
100 1 2.50569 75.8601 1.76099 1.85748e-06 -4.45007 
511 1 0.780992 76.2057 3.52015 5.38174e-07 -4.45004 
99 1 0.780992 76.2057 0.00185074 3.7336e-07 -4.45004 
514 1 2.85128 77.5871 3.52015 2.6553e-07 -4.45001 
102 1 2.85123 77.5871 0.00185074 2.88057e-07 -4.45 
515 1 1.12676 77.9325 5.27932 8.6608e-07 -4.45001 
103 1 1.12676 77.9325 1.76098 8.6608e-07 -4.45001 
611 1 5.60913 73.4421 3.52015 3.27913e-06 -4.45001 
199 1 5.60911 73.4422 0.00185074 3.11252e-06 -4.45001 
612 1 7.67879 74.8246 3.52015 3.93327e-06 -4.4499 
200 1 7.67883 74.8246 0.00185074 3.44427e-06 -4.44989 
615 1 5.95447 75.1696 5.2793 1.35173e-06 -4.44993 
203 1 5.95447 75.1696 1.761 1.35173e-06 -4.44993 
613 1 8.02472 76.5513 5.27931 4.5613e-07 -4.44998 
201 1 8.02472 76.5513 1.76099 4.5613e-07 -4.44998 
617 1 6.30013 76.8967 3.52015 9.9786e-07 -4.44995 
205 1 6.30015 76.8967 0.00185074 9.39474e-07 -4.44996 
618 1 4.5757 77.2419 5.2793 1.47108e-07 -4.44998 
206 1 4.5757 77.2419 1.761 1.47108e-07 -4.44998 
623 1 8.37047 78.2779 3.52015 2.04452e-07 -4.45 
211 1 8.3705 78.278 0.00185074 1.41184e-07 -4.45001 
620 1 12.1652 1.0768 5.27931 6.17883e-08 -4.44999 
208 1 12.1652 1.0768 1.76099 6.17883e-08 -4.44999 
619 1 10.4407 1.42205 3.52015 2.18053e-07 -4.44999 
207 1 10.4407 1.42205 0.00185074 3.15346e-07 -4.44998 
621 1 12.5106 2.80387 3.52015 9.3778e-07 -4.45002 
209 1 12.5106 2.80387 0.00185074 1.06496e-06 -4.45004 
622 1 10.7861 3.14915 5.27932 1.88696e-07 -4.45 
210 1 10.7861 3.14915 1.76097 1.88696e-07 -4.45 
625 1 9.06172 3.49427 3.52015 1.00376e-06 -4.44995 
213 1 9.06167 3.49427 0.00185074 9.02158e-07 -4.44996 
732 1 12.8561 4.53073 5.27925 2.08338e-06 -4.45007 
320 1 12.8561 4.53073 1.76104 2.08338e-06 -4.45007 
626 1 11.1314 4.87635 3.52015 2.63396e-06 -4.45005 
214 1 11.1314 4.87641 0.00185074 4.11671e-06 -4.45011 
723 1 15.6142 0.38609 5.27927 2.71109e-07 -4.44999 
311 1 15.6142 0.38609 1.76102 2.71109e-07 -4.44999 
722 1 13.8896 0.731523 3.52015 5.35841e-07 -4.44999 
310 1 13.8896 0.731485 0.00185074 4.16312e-07 -4.45 
418 1 17.6845 1.76736 5.2793 5.43464e-07 -4.44998 
6 1 17.6845 1.76736 1.761 5.43464e-07 -4.44998 
724 1 15.9599 2.11279 3.52015 1.68397e-07 -4.45001 
312 1 15.9599 2.11278 0.00185074 1.1606e-07 -4.44997 
727 1 14.2352 2.45836 5.27931 6.36281e-07 -4.45001 
315 1 14.2352 2.45836 1.76099 6.36281e-07 -4.45001 
726 1 16.3056 3.83948 5.27936 1.47672e-06 -4.44994 
314 1 16.3056 3.83948 1.76094 1.47672e-06 -4.44994 
725 1 14.5809 4.18495 3.52015 3.71708e-07 -4.45 
313 1 14.5809 4.18493 0.00185074 6.4176e-07 -4.44998 
629 1 9.40706 5.22151 5.2793 9.08045e-07 -4.44997 
217 1 9.40706 5.22151 1.761 9.08045e-07 -4.44997 
733 1 13.2018 6.25728 3.52015 2.64851e-06 -4.45013 
321 1 13.2018 6.25695 0.00185074 3.09841e-06 -4.44994 
628 1 11.4767 6.60337 5.27917 1.35648e-05 -4.45021 
216 1 11.4767 6.60337 1.76113 1.35648e-05 -4.45021 
630 1 9.75201 6.94916 3.52015 1.23241e-05 -4.45004 
218 1 9.75208 6.94909 0.00185074 1.30396e-05 -4.45022 
627 1 11.8224 8.3297 3.52015 2.43459e-05 -4.45035 
215 1 11.8225 8.3288 0.00185074 1.88367e-05 -4.44995 
631 1 10.0968 8.67656 5.27892 8.68881e-05 -4.45044 
219 1 10.0968 8.67656 1.76138 8.68881e-05 -4.45044 
728 1 16.6512 5.56627 3.52015 5.82091e-06 -4.4498 
316 1 16.6512 5.56647 0.00185074 3.46742e-06 -4.44994 
731 1 14.9267 5.91143 5.27931 5.492e-06 -4.44988 
319 1 14.9267 5.91143 1.76099 5.492e-06 -4.44988 
730 1 16.9964 7.29383 5.27913 7.30233e-06 -4.44984 
318 1 16.9964 7.29383 1.76117 7.30233e-06 -4.44984 
729 1 15.2727 7.63812 3.52015 3.36105e-05 -4.44971 
317 1 15.2723 7.63824 0.00185074 1.20388e-05 -4.44978 
734 1 13.5481 7.98303 5.27947 2.54181e-05 -4.44989 
322 1 13.5481 7.98303 1.76083 2.54181e-05 -4.44989 
428 1 17.3411 9.02315 3.52015 6.48017e-05 -4.4506 
16 1 17.3409 9.02183 0.00185074 5.01899e-05 -4.44986 
736 1 15.6179 9.36607 5.27939 4.85622e-05 -4.44975 
324 1 15.6179 9.36607 1.76091 4.85622e-05 -4.44975 
738 1 13.8944 9.70845 3.52015 0.000165622 -4.4495 
326 1 13.8941 9.71015 0.00185074 4.15329e-05 -4.45021 
633 1 12.1694 10.0535 5.28012 0.000155796 -4.44969 
221 1 12.1694 10.0535 1.76018 0.000155796 -4.44969 
635 1 10.4432 10.403 3.52015 0.000257815 -4.45172 
223 1 10.4421 10.4003 0.00185074 0.000249508 -4.44899 
632 1 12.5168 11.7761 3.52015 0.00084939 -4.44632 
220 1 12.5149 11.7821 0.00185074 0.000532997 -4.44797 
637 1 10.7935 12.123 5.2841 0.00218574 -4.44739 
225 1 10.7935 12.123 1.75619 0.00218574 -4.44739 
636 1 9.06056 12.4719 3.52015 0.00145448 -4.44872 
224 1 9.06299 12.4782 0.00185074 0.00262442 -4.45097 
745 1 12.8625 13.5051 5.27802 0.00234808 -4.43434 
333 1 12.8625 13.5051 1.76228 0.00234808 -4.43434 
639 1 11.1392 13.8315 3.52015 0.00431632 -4.42909 
227 1 11.1472 13.8667 0.00185074 0.0200999 -4.4636 
642 1 9.41666 14.175 5.27885 0.0101711 -4.42754 
230 1 9.41666 14.175 1.76145 0.0101711 -4.42754 
432 1 17.6849 10.7521 5.28002 0.000603752 -4.45186 
20 1 17.6849 10.7521 1.76028 0.000603752 -4.45186 
735 1 15.9606 11.0965 3.52015 0.000280187 -4.45026 
323 1 15.9627 11.0962 0.00185074 0.000278587 -4.44999 
739 1 14.2388 11.4362 5.27925 0.000303659 -4.44721 
327 1 14.2388 11.4362 1.76105 0.000303659 -4.44721 
737 1 16.3 12.8297 5.27903 0.00511469 -4.4533 
325 1 16.3 12.8297 1.76127 0.00511469 -4.4533 
740 1 14.5777 13.1662 3.52015 0.00108915 -4.43308 
328 1 14.5808 13.1621 0.00185074 0.00178383 -4.43036 
741 1 16.6465 14.5393 3.52015 5.87143 -4.30165 
329 1 16.6363 14.5431 0.00185074 5.79655 -4.30362 
743 1 13.2017 15.2286 3.52015 12.1831 -3.87899 
331 1 13.22 15.2207 0.00185074 16.9603 -4.02038 
641 1 11.4768 15.559 5.25986 16.7422 -4.02383 
229 1 11.4768 15.559 1.78044 16.7422 -4.02383 
640 1 9.76621 15.8884 3.52015 17.8279 -3.85142 
228 1 9.74741 15.8886 0.00185074 11.2975 -3.99344 
231 1 11.7861 17.1299 0.00185074 80.0009 -2.88664 
744 1 14.9245 14.9088 5.27308 11.3428 -4.02975 
332 1 14.9245 14.9088 1.76722 11.3428 -4.02975 
742 1 17.0398 16.1931 5.27296 27.8846 -3.48595 
330 1 17.0398 16.1931 1.76733 27.8846 -3.48595 
643 1 11.8679 23.1573 3.52015 38.3632 -3.41707 
647 1 9.75264 24.432 3.52015 17.5402 -3.697 
747 1 13.5363 23.4613 5.28475 23.4526 -3.64405 
335 1 13.5363 23.4613 1.75555 23.4526 -3.64405 
746 1 15.2 23.7901 3.52015 22.5125 -3.51719 
334 1 15.2426 23.8083 0.00185074 29.3478 -3.47779 
235 1 9.72834 24.4664 0.00185074 23.2652 -3.52077 
644 1 11.4533 24.7725 5.29858 11.1182 -4.14833 
232 1 11.4533 24.7725 1.74172 11.1182 -4.14833 
649 1 13.1863 25.159 3.52015 0.0233179 -4.41778 
237 1 13.176 25.1307 0.00185074 5.9757 -4.29925 
544 1 9.37421 26.1365 5.27431 5.90244 -4.30499 
132 1 9.37421 26.1365 1.76599 5.90244 -4.30499 
648 1 11.1068 26.4771 3.52015 0.0107283 -4.45674 
236 1 11.1003 26.5048 0.00185074 0.0069887 -4.42924 
646 1 12.8369 26.8368 5.28309 0.00395716 -4.45143 
234 1 12.8369 26.8368 1.75721 0.00395716 -4.45143 
547 1 9.03955 27.8664 3.52015 0.000844992 -4.4505 
135 1 9.03951 27.87 0.00185074 0.0010103 -4.451 
645 1 10.7615 28.2097 5.27512 0.00193723 -4.4509 
233 1 10.7615 28.2097 1.76518 0.00193723 -4.4509 
650 1 12.49 28.5548 3.52015 0.00133233 -4.45351 
238 1 12.4901 28.5619 0.00185074 0.000584876 -4.45002 
346 1 15.9414 29.2578 0.00185074 0.000308384 -4.4487 
748 1 14.9232 25.4773 5.27987 5.83161 -4.30065 
336 1 14.9232 25.4773 1.76043 5.83161 -4.30065 
752 1 16.6365 25.7847 3.52015 5.72782 -4.17058 
340 1 16.6385 25.8052 0.00185074 11.8105 -4.16598 
751 1 14.573 27.1904 3.52015 0.00496187 -4.44999 
339 1 14.5667 27.1838 0.00185074 0.00177333 -4.45379 
749 1 16.2897 27.5384 5.27756 0.00390833 -4.4299 
337 1 16.2897 27.5384 1.76273 0.00390833 -4.4299 
754 1 14.2156 28.9093 5.2797 0.000296845 -4.45009 
342 1 14.2156 28.9093 1.7606 0.000296845 -4.45009 
758 1 15.9429 29.2611 3.52015 0.000992549 -4.4467 
654 1 10.4206 29.9417 3.52015 0.000110133 -4.44968 
242 1 10.4212 29.9398 0.00185074 0.000312114 -4.45155 
652 1 12.1435 30.2856 5.27832 0.000240317 -4.45062 
240 1 12.1435 30.2856 1.76198 0.000240317 -4.45062 
651 1 10.0767 31.6713 5.27957 6.25131e-05 -4.44959 
239 1 10.0767 31.6713 1.76073 6.25131e-05 -4.44959 
656 1 11.7995 32.0152 3.52015 1.78917e-05 -4.44974 
244 1 11.7996 32.0143 0.00185074 4.59301e-05 -4.45024 
660 1 9.73094 33.3989 3.52015 2.82558e-05 -4.44973 
248 1 9.73087 33.3986 0.00185074 2.20747e-05 -4.44968 
657 1 11.4549 33.7431 5.27941 7.45623e-06 -4.44981 
245 1 11.4549 33.7431 1.76089 7.45623e-06 -4.44981 
661 1 13.179 34.0879 3.52015 3.50148e-06 -4.45002 
249 1 13.1789 34.0876 0.00185074 1.0611e-05 -4.45015 
756 1 17.6673 29.6013 5.27902 0.000483468 -4.44869 
344 1 17.6673 29.6013 1.76128 0.000483468 -4.44869 
655 1 13.8684 30.6331 3.52015 0.000208425 -4.45062 
243 1 13.8689 30.6347 0.00185074 3.66092e-05 -4.44995 
755 1 15.5951 30.9817 5.2796 4.44962e-05 -4.45027 
343 1 15.5951 30.9817 1.76069 4.44962e-05 -4.45027 
759 1 17.3213 31.3285 3.52015 0.000167313 -4.44937 
347 1 17.321 31.3271 0.00185074 8.32543e-05 -4.44991 
653 1 13.5236 32.3602 5.27916 4.41905e-05 -4.45028 
241 1 13.5236 32.3602 1.76114 4.41905e-05 -4.45028 
760 1 15.2488 32.7064 3.52015 3.2214e-05 -4.45046 
348 1 15.2491 32.707 0.00185074 7.29529e-06 -4.45015 
757 1 16.9745 33.0532 5.27943 1.04514e-05 -4.44999 
345 1 16.9745 33.0532 1.76087 1.04514e-05 -4.44999 
557 1 9.38498 35.1252 5.27934 2.95117e-06 -4.44994 
145 1 9.38498 35.1252 1.76096 2.95117e-06 -4.44994 
662 1 11.1096 35.4704 3.52015 4.59548e-06 -4.44988 
250 1 11.1096 35.4705 0.00185074 5.99119e-06 -4.44985 
659 1 12.834 35.8153 5.27933 1.01953e-06 -4.44995 
247 1 12.834 35.8153 1.76097 1.01953e-06 -4.44995 
560 1 9.03928 36.8516 3.52015 4.30382e-07 -4.45005 
148 1 9.03925 36.8516 0.00185074 4.34114e-07 -4.45001 
658 1 10.764 37.1971 5.27928 8.48821e-07 -4.44996 
246 1 10.764 37.1971 1.76101 8.48821e-07 -4.44996 