ITEM: TIMESTEP
0
ITEM: NUMBER OF ATOMS
824
ITEM: BOX BOUNDS pp pp pp
6.1200000000000002e-04 1.7944855000000000e+01
1.1609000000000000e-02 7.8281586000000004e+01
-3.6800000000000000e-04 7.0391589999999997e+00
ITEM: ATOMS id type x y z c_PE c_csym 
414 1 3.19495 1.04299 5.28003 -4.44992 1.20762e-06 
2 1 3.19495 1.04299 1.76027 -4.44992 1.20776e-06 
413 1 1.46987 1.38768 3.52015 -4.44988 6.06282e-06 
1 1 1.46987 1.38768 0.000384 -4.44988 6.06292e-06 
415 1 3.53979 2.76981 3.52015 -4.45003 4.9756e-06 
3 1 3.53979 2.76981 0.000384 -4.45003 4.9757e-06 
416 1 1.81509 3.11404 5.28003 -4.44981 1.01707e-05 
4 1 1.81509 3.11404 1.76027 -4.44981 1.01708e-05 
419 1 0.090106 3.45828 3.52015 -4.44973 2.55266e-05 
7 1 0.090106 3.45828 0.000384 -4.44973 2.55267e-05 
526 1 3.88421 4.49694 5.28003 -4.4504 5.34658e-05 
114 1 3.88421 4.49694 1.76027 -4.4504 5.34659e-05 
420 1 2.15949 4.84154 3.52015 -4.44998 1.73705e-05 
8 1 2.15949 4.84154 0.000384 -4.44998 1.73706e-05 
517 1 6.6453 0.352984 5.28003 -4.45007 3.48055e-06 
105 1 6.6453 0.352984 1.76027 -4.45007 3.48069e-06 
516 1 4.91998 0.69823 3.52015 -4.45001 2.20153e-06 
104 1 4.91998 0.69823 0.000384 -4.45001 2.20163e-06 
624 1 8.71648 1.73288 5.28003 -4.44998 3.06287e-06 
212 1 8.71648 1.73288 1.76027 -4.44998 3.06301e-06 
518 1 6.99062 2.07873 3.52015 -4.45012 3.57598e-06 
106 1 6.99062 2.07873 0.000384 -4.45012 3.57608e-06 
521 1 5.26491 2.42466 5.28003 -4.45016 1.24035e-05 
109 1 5.26491 2.42466 1.76027 -4.45016 1.24037e-05 
520 1 7.33643 3.80375 5.28003 -4.44996 8.5532e-06 
108 1 7.33643 3.80375 1.76027 -4.44996 8.55334e-06 
519 1 5.61011 4.15046 3.52015 -4.45031 2.59802e-05 
107 1 5.61011 4.15046 0.000384 -4.45031 2.59803e-05 
423 1 0.435563 5.18452 5.28003 -4.44941 6.90131e-05 
11 1 0.435563 5.18452 1.76027 -4.44941 6.90132e-05 
527 1 4.22878 6.22284 3.52015 -4.45083 0.000163008 
115 1 4.22878 6.22284 0.000384 -4.45083 0.000163008 
422 1 2.50246 6.5702 5.28003 -4.45055 0.000236686 
10 1 2.50246 6.5702 1.76027 -4.45055 0.000236686 
424 1 0.779532 6.91361 3.52015 -4.44945 9.03036e-05 
12 1 0.779532 6.91361 0.000384 -4.44945 9.03037e-05 
421 1 2.84536 8.29731 3.52015 -4.45097 0.000944995 
9 1 2.84536 8.29731 0.000384 -4.45097 0.000944995 
425 1 1.121 8.64727 5.28003 -4.4509 0.000953413 
13 1 1.121 8.64727 1.76027 -4.4509 0.000953413 
522 1 7.68306 5.52819 3.52015 -4.44945 0.00010778 
110 1 7.68306 5.52819 0.000384 -4.44945 0.00010778 
525 1 5.95652 5.87452 5.28003 -4.45019 3.57262e-05 
113 1 5.95652 5.87452 1.76027 -4.45019 3.57263e-05 
524 1 8.02985 7.25409 5.28003 -4.4488 0.000421648 
112 1 8.02985 7.25409 1.76027 -4.44881 0.000421648 
523 1 6.30479 7.59635 3.52015 -4.44942 0.000435523 
111 1 6.30479 7.59635 0.000384 -4.44942 0.000435523 
528 1 4.57507 7.94446 5.28003 -4.45036 0.00018108 
116 1 4.57507 7.94446 1.76027 -4.45036 0.00018108 
634 1 8.37406 8.98579 3.52015 -4.44928 0.000668468 
222 1 8.37406 8.98579 0.000384 -4.44928 0.000668468 
530 1 6.65233 9.31851 5.28003 -4.44738 0.00216301 
118 1 6.65233 9.31851 1.76027 -4.44738 0.00216301 
532 1 4.92507 9.65992 3.52015 -4.44698 0.00177863 
120 1 4.92507 9.65992 0.000384 -4.44698 0.00177863 
427 1 3.19403 10.0177 5.28003 -4.44963 0.00119135 
15 1 3.19403 10.0177 1.76027 -4.44963 0.00119135 
429 1 1.46347 10.3804 3.52015 -4.45461 0.00554506 
17 1 1.46347 10.3804 0.000384 -4.45461 0.00554506 
426 1 3.56226 11.7298 3.52015 -4.44483 0.00746012 
14 1 3.56226 11.7298 0.000384 -4.44521 0.00746012 
431 1 1.81425 12.0947 5.28003 -4.45428 0.0158414 
19 1 1.81425 12.0947 1.76027 -4.45428 0.0158414 
430 1 0.054694 12.4617 3.52015 -4.45314 0.039795 
18 1 0.054694 12.4617 0.000384 -4.45344 0.039795 
539 1 3.94819 13.4513 5.28003 -4.42744 0.0917895 
127 1 3.94819 13.4513 1.76027 -4.42744 0.0917895 
433 1 2.18109 13.7599 3.52015 -4.40226 0.0492078 
21 1 2.18109 13.7599 0.000384 -4.44917 0.0492078 
436 1 0.35646 14.1415 5.28003 -4.36053 0.491978 
24 1 0.35646 14.1415 1.76027 -4.36053 0.491978 
638 1 8.70822 10.727 5.28003 -4.45352 0.00461255 
226 1 8.70822 10.727 1.76027 -4.45352 0.00461255 
529 1 6.99121 11.0485 3.52015 -4.44239 0.00666024 
117 1 6.99121 11.0485 0.000384 -4.44239 0.00666024 
533 1 5.27799 11.3779 5.28003 -4.43756 0.0138866 
121 1 5.27799 11.3779 1.76027 -4.43756 0.0138866 
531 1 7.30354 12.8107 5.28003 -4.42875 0.0578424 
119 1 7.30354 12.8107 1.76027 -4.42875 0.0578424 
534 1 5.64455 13.1244 3.52015 -4.40997 0.0703103 
122 1 5.64455 13.1244 0.000384 -4.40775 0.0703103 
535 1 7.61165 14.6347 3.52015 -4.19408 4.57913 
123 1 7.61165 14.6347 0.000384 -4.1927 4.57913 
537 1 4.33199 15.1484 3.52015 -3.86494 15.185 
125 1 4.33199 15.1484 0.000384 -3.99739 14.7637 
435 1 2.47296 15.3946 5.28003 -3.99511 10.8746 
23 1 2.47296 15.3946 1.76027 -3.99511 10.8746 
434 1 0.716157 15.7347 3.52015 -3.82268 13.0349 
22 1 0.716157 15.7347 0.000384 -3.96236 9.0193 
25 1 2.7829 16.9155 0.000384 -2.93037 59.1549 
538 1 6.0282 15.0052 5.28003 -3.95506 11.6596 
126 1 6.0282 15.0052 1.76027 -3.95506 11.6596 
536 1 8.11975 16.7763 5.28003 -2.98221 36.6798 
124 1 8.11975 16.7763 1.76027 -2.98221 36.6798 
437 1 2.7829 23.4155 3.52015 -3.41792 28.9239 
541 1 4.49784 23.4167 5.28003 -3.61674 22.4095 
129 1 4.49784 23.4167 1.76027 -3.61674 22.4095 
540 1 6.29558 23.4206 3.52015 -3.31705 27.4892 
128 1 6.29558 23.4206 0.000384 -3.2739 33.012 
441 1 0.666716 24.5549 3.52015 -3.68223 15.5755 
29 1 0.666716 24.5549 0.000384 -3.50325 19.8458 
438 1 2.44635 24.9227 5.28003 -4.11104 10.7849 
26 1 2.44635 24.9227 1.76027 -4.11104 10.7849 
443 1 4.31851 25.185 3.52015 -4.38927 0.508598 
31 1 4.31851 25.185 0.000384 -4.28915 5.22945 
750 1 0.340746 26.1831 5.28003 -4.28632 4.89135 
338 1 0.340746 26.1831 1.76027 -4.28633 4.89135 
442 1 2.15143 26.5528 3.52015 -4.45672 0.0377454 
30 1 2.15143 26.5528 0.000384 -4.40846 0.0377454 
440 1 3.92278 26.8724 5.28003 -4.44111 0.0865006 
28 1 3.92278 26.8724 1.76027 -4.44111 0.0865006 
753 1 0.036723 27.8711 3.52015 -4.45726 0.0276065 
341 1 0.036723 27.8711 0.000384 -4.45692 0.0276065 
439 1 1.79235 28.2293 5.28003 -4.45515 0.0140503 
27 1 1.79235 28.2293 1.76027 -4.45515 0.0140503 
444 1 3.53543 28.5926 3.52015 -4.44841 0.00454814 
32 1 3.53543 28.5926 0.000384 -4.44809 0.00454814 
542 1 6.01503 25.3313 5.28003 -4.25385 4.60974 
130 1 6.01503 25.3313 1.76027 -4.25385 4.60974 
546 1 7.5941 25.7177 3.52015 -4.11815 10.1155 
134 1 7.5941 25.7177 0.000384 -4.11943 10.1155 
545 1 5.62196 27.2113 3.52015 -4.41457 0.0744865 
133 1 5.62196 27.2113 0.000384 -4.41684 0.0744865 
543 1 7.28582 27.5264 5.28003 -4.42384 0.0518371 
131 1 7.28582 27.5264 1.76027 -4.42385 0.0518371 
548 1 5.25335 28.9501 5.28003 -4.43936 0.0119168 
136 1 5.25335 28.9501 1.76027 -4.43936 0.0119168 
552 1 6.97036 29.2831 3.52015 -4.4429 0.0063901 
140 1 6.97036 29.2831 0.000384 -4.4429 0.0063901 
448 1 1.44255 29.9487 3.52015 -4.45396 0.00422914 
36 1 1.44255 29.9487 0.000384 -4.45396 0.00422914 
446 1 3.17071 30.3088 5.28003 -4.4497 0.00111851 
34 1 3.17071 30.3088 1.76027 -4.4497 0.00111851 
445 1 1.09985 31.6827 5.28003 -4.45051 0.000609409 
33 1 1.09985 31.6827 1.76027 -4.45051 0.000609409 
450 1 2.82342 32.0312 3.52015 -4.45075 0.000768399 
38 1 2.82342 32.0312 0.000384 -4.45075 0.000768399 
454 1 0.757736 33.4157 3.52015 -4.44936 8.25524e-05 
42 1 0.757736 33.4157 0.000384 -4.44936 8.25525e-05 
451 1 2.48073 33.7589 5.28003 -4.4504 0.000154119 
39 1 2.48073 33.7589 1.76027 -4.4504 0.000154119 
455 1 4.20665 34.1055 3.52015 -4.45077 0.000133677 
43 1 4.20665 34.1055 0.000384 -4.45077 0.000133678 
550 1 8.68884 29.6049 5.28003 -4.45301 0.00318051 
138 1 8.68884 29.6049 1.76027 -4.45301 0.00318051 
449 1 4.90097 30.6662 3.52015 -4.44774 0.00111971 
37 1 4.90097 30.6662 0.000384 -4.44774 0.00111971 
549 1 6.62965 31.0098 5.28003 -4.44783 0.00176439 
137 1 6.62965 31.0098 1.76027 -4.44783 0.00176439 
553 1 8.35274 31.3442 3.52015 -4.44924 0.000681757 
141 1 8.35274 31.3442 0.000384 -4.44924 0.000681757 
447 1 4.55232 32.3828 5.28003 -4.45055 0.000169591 
35 1 4.55232 32.3828 1.76027 -4.45055 0.000169591 
554 1 6.28186 32.7311 3.52015 -4.44973 0.000275366 
142 1 6.28186 32.7311 0.000384 -4.44973 0.000275366 
551 1 8.00749 33.0745 5.28003 -4.44894 0.00035865 
139 1 8.00749 33.0745 1.76027 -4.44894 0.000358651 
763 1 0.413341 35.1441 5.28003 -4.44946 6.06855e-05 
351 1 0.413341 35.1441 1.76027 -4.44946 6.06856e-05 
456 1 2.13752 35.4873 3.52015 -4.44991 1.17006e-05 
44 1 2.13752 35.4873 0.000384 -4.44991 1.17007e-05 
453 1 3.86219 35.8317 5.28003 -4.44964 3.70465e-05 
41 1 3.86219 35.8317 1.76027 -4.44964 3.70466e-05 
766 1 0.067774 36.8701 3.52015 -4.4498 1.9533e-05 
354 1 0.067774 36.8701 0.000384 -4.4498 1.95331e-05 
452 1 1.79291 37.2145 5.28003 -4.45062 9.10729e-06 
40 1 1.79291 37.2145 1.76027 -4.45062 9.10743e-06 
457 1 3.51769 37.5588 3.52015 -4.45418 3.2079e-06 
45 1 3.51769 37.5588 0.000384 -4.45419 3.208e-06 
461 1 1.44762 38.9408 3.52015 -4.45409 5.7797e-06 
49 1 1.44762 38.9408 0.000384 -4.45409 5.7798e-06 
555 1 5.93399 34.4533 5.28003 -4.45027 2.78773e-05 
143 1 5.93399 34.4533 1.76027 -4.45027 2.78774e-05 
558 1 7.66053 34.7999 3.52015 -4.44958 7.06974e-05 
146 1 7.66053 34.7999 0.000384 -4.44958 7.06975e-05 
559 1 5.58788 36.1779 3.52015 -4.44896 2.20202e-05 
147 1 5.58788 36.1779 0.000384 -4.44896 2.20203e-05 
556 1 7.31405 36.5244 5.28003 -4.44934 4.4056e-06 
144 1 7.31405 36.5244 1.76027 -4.44934 4.40574e-06 
561 1 5.24276 37.9039 5.28003 -4.44769 8.6239e-06 
149 1 5.24276 37.9039 1.76027 -4.44769 8.62404e-06 
565 1 6.96837 38.2496 3.52015 -4.45429 3.9842e-06 
153 1 6.96837 38.2496 0.000384 -4.45429 3.9843e-06 
563 1 8.69419 38.5955 5.28003 -4.45012 2.0997e-06 
151 1 8.69419 38.5955 1.76027 -4.45012 2.09984e-06 
459 1 3.17277 39.2856 5.28003 -4.49 1.4974e-06 
47 1 3.17277 39.2856 1.76027 -4.49 1.49754e-06 
458 1 1.10221 40.6666 5.28003 -4.4469 1.29564e-06 
46 1 1.10221 40.6666 1.76027 -4.4469 1.29578e-06 
462 1 2.82762 41.0119 3.52015 -4.51935 2.42344e-06 
50 1 2.82762 41.0119 0.000384 -4.51935 2.42354e-06 
467 1 0.756801 42.3923 3.52015 -4.4529 2.04238e-07 
55 1 0.756801 42.3923 0.000384 -4.4529 2.04338e-07 
464 1 2.48243 42.738 5.28003 -4.49015 3.47063e-06 
52 1 2.48243 42.738 1.76027 -4.49016 3.47077e-06 
469 1 4.20776 43.0832 3.52015 -4.51899 2.0588e-06 
57 1 4.20776 43.0832 0.000384 -4.51899 2.0589e-06 
463 1 4.89781 39.6303 3.52015 -4.51895 1.6451e-06 
51 1 4.89781 39.6303 0.000384 -4.51895 1.6452e-06 
562 1 6.6231 39.9755 5.28003 -4.49013 2.8482e-06 
150 1 6.6231 39.9755 1.76027 -4.49013 2.84834e-06 
567 1 8.34869 40.321 3.52015 -4.45289 4.518e-07 
155 1 8.34869 40.321 0.000384 -4.45289 4.519e-07 
460 2 4.55278 41.3568 5.28003 -2.75929 5.2904e-08 
48 2 4.55278 41.3568 1.76027 -2.7593 5.3044e-08 
566 1 6.27791 41.7016 3.52015 -4.51936 2.0913e-06 
154 1 6.27791 41.7016 0.000384 -4.51936 2.0914e-06 
564 1 8.00329 42.0468 5.28003 -4.44689 1.6359e-06 
152 1 8.00329 42.0468 1.76027 -4.4469 1.63604e-06 
568 1 5.93279 43.428 5.28003 -4.48999 1.0159e-06 
156 1 5.93279 43.428 1.76027 -4.48999 1.01604e-06 
572 1 7.65787 43.7727 3.52015 -4.45406 5.7267e-06 
160 1 7.65787 43.7727 0.000384 -4.45407 5.7268e-06 
776 1 0.411255 44.1179 5.28003 -4.45009 2.90972e-06 
364 1 0.411255 44.1179 1.76027 -4.4501 2.90986e-06 
468 1 2.13712 44.4637 3.52015 -4.45429 3.44385e-06 
56 1 2.13712 44.4637 0.000384 -4.45429 3.44395e-06 
466 1 3.86283 44.8096 5.28003 -4.44773 1.18479e-05 
54 1 3.86283 44.8096 1.76027 -4.44773 1.1848e-05 
779 1 0.065509 45.8433 3.52015 -4.44973 2.41831e-05 
367 1 0.065509 45.8433 0.000384 -4.44973 2.41832e-05 
465 1 1.7913 46.1887 5.28003 -4.4493 8.73988e-06 
53 1 1.7913 46.1887 1.76027 -4.4493 8.74002e-06 
470 1 3.51762 46.5354 3.52015 -4.44898 2.49117e-05 
58 1 3.51762 46.5354 0.000384 -4.44898 2.49118e-05 
474 1 1.44467 47.9132 3.52015 -4.44946 0.000105599 
62 1 1.44467 47.9132 0.000384 -4.44946 0.000105599 
472 1 3.17122 48.2595 5.28003 -4.45019 3.66149e-05 
60 1 3.17122 48.2595 1.76027 -4.45019 3.6615e-05 
571 1 5.58795 45.1548 3.52015 -4.45421 5.3258e-06 
159 1 5.58795 45.1548 0.000384 -4.45421 5.3259e-06 
569 1 7.31265 45.499 5.28003 -4.45059 1.05993e-05 
157 1 7.31265 45.499 1.76027 -4.45059 1.05994e-05 
574 1 5.24353 46.8819 5.28003 -4.44974 5.33311e-05 
162 1 5.24353 46.8819 1.76027 -4.44974 5.33312e-05 
578 1 6.96825 47.2265 3.52015 -4.44998 1.72117e-05 
166 1 6.96825 47.2265 0.000384 -4.44998 1.72118e-05 
576 1 8.69217 47.5695 5.28003 -4.44942 6.96734e-05 
164 1 8.69217 47.5695 1.76027 -4.44942 6.96735e-05 
475 1 4.89895 48.6078 3.52015 -4.45083 0.000163109 
63 1 4.89895 48.6078 0.000384 -4.45083 0.000163109 
471 1 1.09788 49.6391 5.28003 -4.44881 0.000421816 
59 1 1.09788 49.6391 1.76027 -4.44881 0.000421816 
476 1 2.82294 49.9813 3.52015 -4.44942 0.00043833 
64 1 2.82294 49.9813 0.000384 -4.44942 0.00043833 
480 1 0.753674 51.3708 3.52015 -4.44928 0.000668152 
68 1 0.753674 51.3708 0.000384 -4.44928 0.000668152 
477 1 2.4754 51.7035 5.28003 -4.44738 0.00216006 
65 1 2.4754 51.7035 1.76027 -4.44738 0.00216006 
481 1 4.20267 52.0449 3.52015 -4.44699 0.00178217 
69 1 4.20267 52.0449 0.000384 -4.44699 0.00178217 
789 1 0.419519 53.112 5.28003 -4.45352 0.00461314 
377 1 0.419519 53.112 1.76027 -4.45352 0.00461314 
482 1 2.13652 53.4335 3.52015 -4.44261 0.00666015 
70 1 2.13652 53.4335 0.000384 -4.44261 0.00666015 
479 1 3.84974 53.7629 5.28003 -4.43868 0.0138837 
67 1 3.84974 53.7629 1.76027 -4.43868 0.0138837 
575 1 6.62527 48.9552 5.28003 -4.45055 0.000239487 
163 1 6.62527 48.9552 1.76027 -4.45055 0.000239488 
579 1 8.3482 49.2986 3.52015 -4.44945 9.04449e-05 
167 1 8.3482 49.2986 0.000384 -4.44945 9.0445e-05 
473 1 4.55266 50.3294 5.28003 -4.45036 0.000181233 
61 1 4.55266 50.3294 1.76027 -4.45036 0.000181233 
580 1 6.28238 50.6823 3.52015 -4.45096 0.000945581 
168 1 6.28238 50.6823 0.000384 -4.45096 0.000945581 
577 1 8.00674 51.0323 5.28003 -4.4509 0.000957454 
165 1 8.00674 51.0323 1.76027 -4.4509 0.000957454 
581 1 5.9337 52.4027 5.28003 -4.44963 0.00118917 
169 1 5.9337 52.4027 1.76027 -4.44963 0.00118917 
584 1 7.66427 52.7654 3.52015 -4.45461 0.00554176 
172 1 7.66427 52.7654 0.000384 -4.45461 0.00554176 
792 1 0.100921 54.8467 3.52015 -4.45441 0.0397891 
380 1 0.100921 54.8467 0.000384 -4.45441 0.0397891 
478 1 1.8242 55.1957 5.28003 -4.42455 0.0578446 
66 1 1.8242 55.1957 1.76027 -4.42455 0.0578446 
483 1 3.48318 55.5094 3.52015 -4.41287 0.0703126 
71 1 3.48318 55.5094 0.000384 -4.41287 0.0703126 
487 1 1.51608 57.0197 3.52015 -4.31946 0.550343 
75 1 1.51608 57.0197 0.000384 -4.31946 0.550343 
485 1 3.09954 57.3902 5.28003 -4.36424 0.350588 
73 1 3.09954 57.3902 1.76027 -4.36424 0.350588 
585 1 5.56547 54.1148 3.52015 -4.44686 0.00746336 
173 1 5.56547 54.1148 0.000384 -4.44686 0.00746337 
582 1 7.31349 54.4797 5.28003 -4.45531 0.0158439 
170 1 7.31349 54.4797 1.76027 -4.45531 0.0158439 
587 1 5.17955 55.8363 5.28003 -4.44545 0.0917836 
175 1 5.17955 55.8363 1.76027 -4.44545 0.0917836 
591 1 6.94665 56.1449 3.52015 -4.44256 0.0492064 
179 1 6.94665 56.1449 0.000384 -4.44256 0.0492064 
589 1 8.77128 56.5265 5.28003 -4.3577 0.491961 
177 1 8.77128 56.5265 1.76027 -4.35771 0.491961 
489 1 4.79574 57.5334 3.52015 -4.40833 0.483586 
77 1 4.79574 57.5334 0.000384 -4.40834 0.483586 
588 1 6.65478 57.7796 5.28003 -4.32232 3.42114 
176 1 6.65478 57.7796 1.76027 -4.32232 3.42114 
590 1 8.41158 58.1197 3.52015 -4.10703 8.39095 
178 1 8.41158 58.1197 0.000384 -4.10703 8.39095 
484 1 1.00798 59.1613 5.28003 -4.25241 7.57256 
72 1 1.00798 59.1613 1.76027 -4.25241 7.57256 
488 1 2.83215 59.3055 3.52015 -4.38719 2.07246 
76 1 2.83215 59.3055 0.000384 -4.38719 2.07246 
491 1 3.1127 61.2163 5.28003 -4.334 0.573763 
79 1 3.1127 61.2163 1.76027 -4.334 0.573763 
490 1 1.53363 61.6027 3.52015 -4.25169 1.09549 
78 1 1.53363 61.6027 0.000384 -4.25169 1.09549 
492 1 3.50577 63.0962 3.52015 -4.4142 0.0743266 
80 1 3.50577 63.0962 0.000384 -4.4142 0.0743266 
493 1 1.84191 63.4114 5.28003 -4.4243 0.0518121 
81 1 1.84191 63.4114 1.76027 -4.4243 0.0518121 
592 1 6.34483 59.3005 3.52015 -4.04073 6.42144 
180 1 6.34483 59.3005 0.000384 -4.04074 6.42144 
486 1 4.62989 59.3017 5.28003 -4.42269 1.09988 
74 1 4.62989 59.3017 1.76027 -4.42269 1.09988 
700 1 8.46102 60.4399 3.52015 -4.10737 9.11331 
288 1 8.46102 60.4399 0.000384 -4.10737 9.11331 
594 1 6.68139 60.8077 5.28003 -4.31312 3.55838 
182 1 6.68139 60.8077 1.76027 -4.31313 3.55838 
593 1 4.80923 61.07 3.52015 -4.40111 0.508597 
181 1 4.80923 61.07 0.000384 -4.40111 0.508597 
701 1 8.78699 62.0681 5.28003 -4.33514 0.863959 
289 1 8.78699 62.0681 1.76027 -4.33514 0.863959 
595 1 6.97631 62.4378 3.52015 -4.44791 0.037734 
183 1 6.97631 62.4378 0.000384 -4.44791 0.037734 
598 1 5.20496 62.7574 5.28003 -4.44614 0.0865265 
186 1 5.20496 62.7574 1.76027 -4.44614 0.0865265 
496 1 0.118892 63.756 3.52015 -4.45633 0.027665 
84 1 0.118892 63.756 0.000384 -4.45633 0.027665 
603 1 3.87439 64.8351 5.28003 -4.43936 0.0119467 
191 1 3.87439 64.8351 1.76027 -4.43937 0.0119467 
497 1 2.15738 65.1681 3.52015 -4.44291 0.00640346 
85 1 2.15738 65.1681 0.000384 -4.44291 0.00640346 
500 1 0.438895 65.4899 5.28003 -4.45302 0.00317121 
88 1 0.438895 65.4899 1.76027 -4.45302 0.00317121 
604 1 4.22677 66.5511 3.52015 -4.44774 0.00110444 
192 1 4.22677 66.5511 0.000384 -4.44774 0.00110444 
499 1 2.49809 66.8948 5.28003 -4.44783 0.00176752 
87 1 2.49809 66.8948 1.76027 -4.44783 0.00176752 
501 1 0.774994 67.2292 3.52015 -4.44923 0.000682317 
89 1 0.774994 67.2292 0.000384 -4.44923 0.000682317 
597 1 7.33539 64.1142 5.28003 -4.45608 0.014094 
185 1 7.33539 64.1142 1.76027 -4.45608 0.014094 
596 1 5.5923 64.4776 3.52015 -4.44842 0.00455237 
184 1 5.5923 64.4776 0.000384 -4.44842 0.00455237 
599 1 7.68519 65.8337 3.52015 -4.45397 0.00421308 
187 1 7.68519 65.8337 0.000384 -4.45397 0.00421308 
602 1 5.95702 66.1937 5.28003 -4.4497 0.00112675 
190 1 5.95702 66.1937 1.76027 -4.4497 0.00112675 
601 1 8.02789 67.5677 5.28003 -4.45051 0.000605453 
189 1 8.02789 67.5677 1.76027 -4.45051 0.000605453 
600 1 6.30431 67.9162 3.52015 -4.45075 0.000762977 
188 1 6.30431 67.9162 0.000384 -4.45075 0.000762977 
605 1 4.57542 68.2678 5.28003 -4.45055 0.000165556 
193 1 4.57542 68.2678 1.76027 -4.45055 0.000165556 
498 1 2.84587 68.6161 3.52015 -4.44973 0.000277477 
86 1 2.84587 68.6161 0.000384 -4.44973 0.000277477 
502 1 1.12024 68.9595 5.28003 -4.44894 0.000359064 
90 1 1.12024 68.9595 1.76027 -4.44894 0.000359064 
504 1 3.19374 70.3383 5.28003 -4.45027 2.84405e-05 
92 1 3.19374 70.3383 1.76027 -4.45027 2.84406e-05 
506 1 1.46721 70.6849 3.52015 -4.44957 7.00509e-05 
94 1 1.46721 70.6849 0.000384 -4.44957 7.0051e-05 
503 1 3.53985 72.0629 3.52015 -4.45029 2.20681e-05 
91 1 3.53985 72.0629 0.000384 -4.4503 2.20682e-05 
508 1 1.81368 72.4094 5.28003 -4.45 4.74064e-06 
96 1 1.81368 72.4094 1.76027 -4.45 4.74078e-06 
507 1 0.087841 72.755 3.52015 -4.4498 1.71823e-05 
95 1 0.087841 72.755 0.000384 -4.44981 1.71824e-05 
711 1 8.37 69.3007 3.52015 -4.44936 8.17121e-05 
299 1 8.37 69.3007 0.000384 -4.44936 8.17122e-05 
607 1 6.64701 69.6439 5.28003 -4.45039 0.000152796 
195 1 6.64701 69.6439 1.76027 -4.45039 0.000152797 
609 1 4.92109 69.9904 3.52015 -4.45076 0.000139977 
197 1 4.92109 69.9904 0.000384 -4.45076 0.000139977 
715 1 8.7144 71.0291 5.28003 -4.44944 6.1423e-05 
303 1 8.7144 71.0291 1.76027 -4.44945 6.14231e-05 
606 1 6.99022 71.3723 3.52015 -4.44991 1.13344e-05 
194 1 6.99022 71.3723 0.000384 -4.44991 1.13345e-05 
610 1 5.26555 71.7167 5.28003 -4.45032 3.67803e-05 
198 1 5.26555 71.7167 1.76027 -4.45032 3.67804e-05 
608 1 7.33483 73.0995 5.28003 -4.44982 9.3575e-06 
196 1 7.33483 73.0995 1.76027 -4.44983 9.35764e-06 
616 1 3.88497 73.7889 5.28003 -4.45012 8.1513e-06 
204 1 3.88497 73.7889 1.76027 -4.45012 8.15144e-06 
510 1 2.15936 74.1346 3.52015 -4.45011 3.67091e-06 
98 1 2.15936 74.1346 0.000384 -4.45011 3.67101e-06 
513 1 0.433545 74.4804 5.28003 -4.45002 1.3065e-06 
101 1 0.433545 74.4804 1.76027 -4.45002 1.30664e-06 
614 1 4.22992 75.5153 3.52015 -4.44999 1.4319e-06 
202 1 4.22992 75.5153 0.000384 -4.44999 1.432e-06 
512 1 2.50463 75.8605 5.28003 -4.45005 2.3413e-06 
100 1 2.50463 75.8605 1.76027 -4.45005 2.34144e-06 
511 1 0.779046 76.206 3.52015 -4.45005 4.03718e-07 
99 1 0.779046 76.206 0.000384 -4.45005 4.03818e-07 
514 1 2.84982 77.5866 3.52015 -4.44996 1.90817e-06 
102 1 2.84982 77.5866 0.000384 -4.44996 1.90827e-06 
515 1 1.12445 77.9318 5.28003 -4.44999 1.53123e-06 
103 1 1.12445 77.9318 1.76027 -4.44999 1.53137e-06 
611 1 5.61005 73.4438 3.52015 -4.44999 3.3613e-06 
199 1 5.61005 73.4438 0.000384 -4.44999 3.3614e-06 
612 1 7.68012 74.8258 3.52015 -4.44992 6.1448e-06 
200 1 7.68012 74.8258 0.000384 -4.44992 6.1449e-06 
615 1 5.95497 75.1705 5.28003 -4.44992 9.51904e-07 
203 1 5.95497 75.1705 1.76027 -4.44992 9.52044e-07 
613 1 8.02553 76.5516 5.28003 -4.45002 1.40992e-06 
201 1 8.02553 76.5516 1.76027 -4.45002 1.41006e-06 
617 1 6.30012 76.8969 3.52015 -4.44997 2.74349e-06 
205 1 6.30012 76.8969 0.000384 -4.44997 2.74359e-06 
618 1 4.57496 77.2417 5.28003 -4.44995 5.2812e-08 
206 1 4.57496 77.2417 1.76027 -4.44995 5.2952e-08 
623 1 8.37094 78.2773 3.52015 -4.45006 2.06338e-07 
211 1 8.37094 78.2773 0.000384 -4.45007 2.06438e-07 
620 1 12.1671 1.04299 5.28003 -4.44992 1.43032e-06 
208 1 12.1671 1.04299 1.76027 -4.44992 1.43046e-06 
619 1 10.442 1.38768 3.52015 -4.44989 6.1739e-06 
207 1 10.442 1.38768 0.000384 -4.44989 6.174e-06 
621 1 12.5119 2.76981 3.52015 -4.45003 4.9079e-06 
209 1 12.5119 2.76981 0.000384 -4.45003 4.908e-06 
622 1 10.7872 3.11404 5.28003 -4.44981 1.01542e-05 
210 1 10.7872 3.11404 1.76027 -4.44981 1.01543e-05 
625 1 9.06223 3.45828 3.52015 -4.44974 2.56008e-05 
213 1 9.06223 3.45828 0.000384 -4.44974 2.56009e-05 
732 1 12.8563 4.49694 5.28003 -4.45039 5.35574e-05 
320 1 12.8563 4.49694 1.76027 -4.45039 5.35575e-05 
626 1 11.1316 4.84154 3.52015 -4.44998 1.71928e-05 
214 1 11.1316 4.84154 0.000384 -4.44998 1.71929e-05 
723 1 15.6174 0.352984 5.28003 -4.45007 3.66535e-06 
311 1 15.6174 0.352984 1.76027 -4.45007 3.66549e-06 
722 1 13.8921 0.69823 3.52015 -4.45 2.15423e-06 
310 1 13.8921 0.69823 0.000384 -4.45 2.15433e-06 
418 1 17.6886 1.73288 5.28003 -4.44998 3.17725e-06 
6 1 17.6886 1.73288 1.76027 -4.44998 3.17739e-06 
724 1 15.9627 2.07873 3.52015 -4.45012 3.98418e-06 
312 1 15.9627 2.07873 0.000384 -4.45012 3.98428e-06 
727 1 14.237 2.42466 5.28003 -4.45016 1.29118e-05 
315 1 14.237 2.42466 1.76027 -4.45016 1.2912e-05 
726 1 16.3086 3.80375 5.28003 -4.44996 8.56324e-06 
314 1 16.3086 3.80375 1.76027 -4.44996 8.56338e-06 
725 1 14.5822 4.15046 3.52015 -4.45031 2.64199e-05 
313 1 14.5822 4.15046 0.000384 -4.45031 2.642e-05 
629 1 9.40769 5.18452 5.28003 -4.44941 6.93816e-05 
217 1 9.40769 5.18452 1.76027 -4.44941 6.93817e-05 
733 1 13.2009 6.22284 3.52015 -4.45082 0.000162532 
321 1 13.2009 6.22284 0.000384 -4.45082 0.000162532 
628 1 11.4746 6.5702 5.28003 -4.45055 0.000235824 
216 1 11.4746 6.5702 1.76027 -4.45055 0.000235824 
630 1 9.75165 6.91361 3.52015 -4.44945 9.02325e-05 
218 1 9.75165 6.91361 0.000384 -4.44945 9.02326e-05 
627 1 11.8175 8.29731 3.52015 -4.45097 0.000943646 
215 1 11.8175 8.29731 0.000384 -4.45097 0.000943646 
631 1 10.0931 8.64727 5.28003 -4.4509 0.000955058 
219 1 10.0931 8.64727 1.76027 -4.4509 0.000955058 
728 1 16.6552 5.52819 3.52015 -4.44946 0.000108946 
316 1 16.6552 5.52819 0.000384 -4.44946 0.000108947 
731 1 14.9286 5.87452 5.28003 -4.45019 3.5325e-05 
319 1 14.9286 5.87452 1.76027 -4.45019 3.53251e-05 
730 1 17.002 7.25409 5.28003 -4.44881 0.000424261 
318 1 17.002 7.25409 1.76027 -4.44881 0.000424261 
729 1 15.2769 7.59635 3.52015 -4.44943 0.000433646 
317 1 15.2769 7.59635 0.000384 -4.44943 0.000433646 
734 1 13.5472 7.94446 5.28003 -4.45035 0.000181391 
322 1 13.5472 7.94446 1.76027 -4.45035 0.000181391 
428 1 17.3462 8.98579 3.52015 -4.44928 0.000671702 
16 1 17.3462 8.98579 0.000384 -4.44928 0.000671702 
736 1 15.6245 9.31851 5.28003 -4.44738 0.00217452 
324 1 15.6245 9.31851 1.76027 -4.44738 0.00217452 
738 1 13.8972 9.65992 3.52015 -4.44698 0.00177768 
326 1 13.8972 9.65992 0.000384 -4.44698 0.00177768 
633 1 12.1662 10.0177 5.28003 -4.44963 0.00118355 
221 1 12.1662 10.0177 1.76027 -4.44963 0.00118355 
635 1 10.4356 10.3804 3.52015 -4.45461 0.00554406 
223 1 10.4356 10.3804 0.000384 -4.45462 0.00554406 
632 1 12.5344 11.7298 3.52015 -4.44483 0.00746418 
220 1 12.5344 11.7298 0.000384 -4.44521 0.00746418 
637 1 10.7864 12.0947 5.28003 -4.45428 0.0158377 
225 1 10.7864 12.0947 1.76027 -4.45428 0.0158377 
636 1 9.02682 12.4617 3.52015 -4.45314 0.0397925 
224 1 9.02682 12.4617 0.000384 -4.45343 0.0397925 
745 1 12.9203 13.4513 5.28003 -4.42744 0.091766 
333 1 12.9203 13.4513 1.76027 -4.42744 0.091766 
639 1 11.1532 13.7599 3.52015 -4.40226 0.0491781 
227 1 11.1532 13.7599 0.000384 -4.44916 0.0491781 
642 1 9.32858 14.1415 5.28003 -4.36054 0.491962 
230 1 9.32858 14.1415 1.76027 -4.36054 0.491963 
432 1 17.6803 10.727 5.28003 -4.45352 0.00460728 
20 1 17.6803 10.727 1.76027 -4.45353 0.00460728 
735 1 15.9633 11.0485 3.52015 -4.44238 0.00664839 
323 1 15.9633 11.0485 0.000384 -4.44238 0.00664839 
739 1 14.2501 11.3779 5.28003 -4.43756 0.0138823 
327 1 14.2501 11.3779 1.76027 -4.43756 0.0138823 
737 1 16.2757 12.8107 5.28003 -4.42874 0.0577941 
325 1 16.2757 12.8107 1.76027 -4.42875 0.0577941 
740 1 14.6167 13.1244 3.52015 -4.40998 0.0703041 
328 1 14.6167 13.1244 0.000384 -4.40777 0.0703041 
741 1 16.5838 14.6347 3.52015 -4.19409 4.57926 
329 1 16.5838 14.6347 0.000384 -4.1927 4.57926 
743 1 13.3041 15.1484 3.52015 -3.86494 15.185 
331 1 13.3041 15.1484 0.000384 -3.9974 14.7638 
641 1 11.4451 15.3946 5.28003 -3.99511 10.8746 
229 1 11.4451 15.3946 1.76027 -3.99511 10.8746 
640 1 9.68828 15.7347 3.52015 -3.82268 13.035 
228 1 9.68828 15.7347 0.000384 -3.96236 9.01931 
231 1 11.755 16.9155 0.000384 -2.93037 59.1548 
744 1 15.0003 15.0052 5.28003 -3.95507 11.6599 
332 1 15.0003 15.0052 1.76027 -3.95507 11.6599 
742 1 17.0919 16.7763 5.28003 -2.98222 36.6798 
330 1 17.0919 16.7763 1.76027 -2.98221 36.6798 
643 1 11.755 23.4155 3.52015 -3.41791 28.9244 
747 1 13.47 23.4167 5.28003 -3.61674 22.4088 
335 1 13.47 23.4167 1.76027 -3.61674 22.4088 
746 1 15.2677 23.4206 3.52015 -3.31706 27.4891 
334 1 15.2677 23.4206 0.000384 -3.27391 33.0119 
647 1 9.63884 24.5549 3.52015 -3.68222 15.5752 
235 1 9.63884 24.5549 0.000384 -3.50324 19.8457 
644 1 11.4185 24.9227 5.28003 -4.11104 10.7849 
232 1 11.4185 24.9227 1.76027 -4.11104 10.7849 
649 1 13.2906 25.185 3.52015 -4.38929 0.508344 
237 1 13.2906 25.185 0.000384 -4.28918 5.22942 
544 1 9.31287 26.1831 5.28003 -4.28632 4.89148 
132 1 9.31287 26.1831 1.76027 -4.28632 4.89148 
648 1 11.1236 26.5528 3.52015 -4.45673 0.0377661 
236 1 11.1236 26.5528 0.000384 -4.40846 0.0377661 
646 1 12.8949 26.8724 5.28003 -4.44111 0.0864575 
234 1 12.8949 26.8724 1.76027 -4.44111 0.0864575 
547 1 9.00884 27.8711 3.52015 -4.45725 0.0276234 
135 1 9.00884 27.8711 0.000384 -4.45692 0.0276234 
645 1 10.7645 28.2293 5.28003 -4.45515 0.0140537 
233 1 10.7645 28.2293 1.76027 -4.45515 0.0140537 
650 1 12.5076 28.5926 3.52015 -4.44841 0.00454255 
238 1 12.5076 28.5926 0.000384 -4.44809 0.00454255 
748 1 14.9872 25.3313 5.28003 -4.25384 4.60968 
336 1 14.9872 25.3313 1.76027 -4.25384 4.60968 
752 1 16.5662 25.7177 3.52015 -4.11814 10.1155 
340 1 16.5662 25.7177 0.000384 -4.11942 10.1155 
751 1 14.5941 27.2113 3.52015 -4.41456 0.0744995 
339 1 14.5941 27.2113 0.000384 -4.41683 0.0744995 
749 1 16.2579 27.5264 5.28003 -4.42384 0.0519037 
337 1 16.2579 27.5264 1.76027 -4.42384 0.0519037 
754 1 14.2255 28.9501 5.28003 -4.43936 0.0119252 
342 1 14.2255 28.9501 1.76027 -4.43936 0.0119252 
758 1 15.9425 29.2831 3.52015 -4.4429 0.00639817 
346 1 15.9425 29.2831 0.000384 -4.4429 0.00639817 
654 1 10.4147 29.9487 3.52015 -4.45396 0.00423021 
242 1 10.4147 29.9487 0.000384 -4.45396 0.00423021 
652 1 12.1428 30.3088 5.28003 -4.44969 0.00112743 
240 1 12.1428 30.3088 1.76027 -4.44969 0.00112743 
651 1 10.072 31.6827 5.28003 -4.4505 0.000606686 
239 1 10.072 31.6827 1.76027 -4.4505 0.000606686 
656 1 11.7955 32.0312 3.52015 -4.45074 0.000772822 
244 1 11.7955 32.0312 0.000384 -4.45074 0.000772822 
660 1 9.72986 33.4157 3.52015 -4.44935 8.17655e-05 
248 1 9.72986 33.4157 0.000384 -4.44935 8.17656e-05 
657 1 11.4528 33.7589 5.28003 -4.4504 0.000156335 
245 1 11.4528 33.7589 1.76027 -4.4504 0.000156335 
661 1 13.1788 34.1055 3.52015 -4.45078 0.00013196 
249 1 13.1788 34.1055 0.000384 -4.45078 0.00013196 
756 1 17.661 29.6049 5.28003 -4.453 0.00318348 
344 1 17.661 29.6049 1.76027 -4.45301 0.00318348 
655 1 13.8731 30.6662 3.52015 -4.44775 0.00112158 
243 1 13.8731 30.6662 0.000384 -4.44775 0.00112158 
755 1 15.6018 31.0098 5.28003 -4.44784 0.00176724 
343 1 15.6018 31.0098 1.76027 -4.44784 0.00176724 
759 1 17.3249 31.3442 3.52015 -4.44923 0.000686988 
347 1 17.3249 31.3442 0.000384 -4.44923 0.000686988 
653 1 13.5244 32.3828 5.28003 -4.45056 0.00017191 
241 1 13.5244 32.3828 1.76027 -4.45056 0.00017191 
760 1 15.254 32.7311 3.52015 -4.44973 0.0002769 
348 1 15.254 32.7311 0.000384 -4.44973 0.0002769 
757 1 16.9796 33.0745 5.28003 -4.44893 0.0003584 
345 1 16.9796 33.0745 1.76027 -4.44894 0.0003584 
557 1 9.38546 35.1441 5.28003 -4.44945 6.11392e-05 
145 1 9.38546 35.1441 1.76027 -4.44945 6.11393e-05 
662 1 11.1096 35.4873 3.52015 -4.44991 1.17788e-05 
250 1 11.1096 35.4873 0.000384 -4.44991 1.17789e-05 
659 1 12.8343 35.8317 5.28003 -4.44965 3.688e-05 
247 1 12.8343 35.8317 1.76027 -4.44965 3.68801e-05 
560 1 9.0399 36.8701 3.52015 -4.4498 1.99438e-05 
148 1 9.0399 36.8701 0.000384 -4.4498 1.99439e-05 
658 1 10.765 37.2145 5.28003 -4.45061 8.9397e-06 
246 1 10.765 37.2145 1.76027 -4.45061 8.93984e-06 
663 1 12.4898 37.5588 3.52015 -4.45419 3.19e-06 
251 1 12.4898 37.5588 0.000384 -4.45419 3.1901e-06 
667 1 10.4197 38.9408 3.52015 -4.45409 5.4803e-06 
255 1 10.4197 38.9408 0.000384 -4.45409 5.4804e-06 
761 1 14.9061 34.4533 5.28003 -4.45026 2.813e-05 
349 1 14.9061 34.4533 1.76027 -4.45026 2.81301e-05 
764 1 16.6326 34.7999 3.52015 -4.44958 6.98988e-05 