ITEM: TIMESTEP
86
ITEM: NUMBER OF ATOMS
206
ITEM: BOX BOUNDS pp pp pp
5.4074537871399335e-04 8.9727335985445755e+00
1.1324761370883729e-02 7.1781869990015423e+01
-3.9556560940948366e-04 3.5193955656094094e+00
ITEM: ATOMS id type x y z c_csym c_peratom 
1 1 1.47215 1.38719 0.000353198 5.79283e-06 -4.4499 
2 1 3.19728 1.04255 1.76025 8.88353e-07 -4.44992 
3 1 3.54212 2.76927 0.000354477 5.03328e-06 -4.45003 
4 1 1.81738 3.11345 1.76025 9.56787e-06 -4.44982 
7 1 0.0923255 3.4577 0.000355305 2.37555e-05 -4.44974 
114 1 3.88665 4.49622 1.76025 4.85285e-05 -4.4504 
8 1 2.16177 4.84087 0.000356412 1.75218e-05 -4.44999 
9 1 2.84778 8.29657 0.000355789 0.000950749 -4.45096 
10 1 2.50485 6.56945 1.76025 0.000234246 -4.45056 
11 1 0.437862 5.18393 1.76025 6.66404e-05 -4.44941 
12 1 0.78199 6.91302 0.00035656 9.23394e-05 -4.44945 
13 1 1.12345 8.64668 1.76025 0.000967761 -4.45091 
115 1 4.2312 6.22207 0.000356646 0.000159655 -4.45084 
14 1 3.56501 11.729 0.000355291 0.00764441 -4.44675 
15 1 3.19664 10.0169 1.76025 0.00117091 -4.44961 
19 1 1.8169 12.0937 1.76026 0.0158282 -4.45527 
17 1 1.46598 10.3798 0.000354556 0.00559909 -4.45463 
18 1 0.0571403 12.461 0.000354796 0.0400023 -4.45436 
127 1 3.95079 13.4507 1.76026 0.0917659 -4.4454 
21 1 2.18406 13.7587 0.000349899 0.0499784 -4.44234 
22 1 0.719803 15.7323 0.000354125 8.35778 -4.10722 
23 1 2.47587 15.3937 1.76027 3.41256 -4.32277 
24 1 0.358977 14.1403 1.76026 0.477228 -4.35902 
25 1 2.78384 16.9158 0.000337234 6.4179 -4.04116 
125 1 4.334 15.1488 0.000353244 0.481812 -4.40877 
26 1 2.44566 18.4226 1.76026 3.56765 -4.31271 
27 1 1.79122 21.7297 1.76025 0.013968 -4.45612 
28 1 3.92158 20.3728 1.76025 0.0860568 -4.44613 
29 1 0.664694 18.0532 0.000353124 9.14895 -4.10766 
30 1 2.1501 20.0525 0.000350857 0.0372746 -4.44819 
31 1 4.31834 18.6857 0.000352809 0.509708 -4.40057 
32 1 3.53394 22.093 0.000354186 0.00442015 -4.44849 
132 1 0.340408 19.6836 1.76025 0.888414 -4.33435 
135 1 0.0358708 21.3721 0.000353646 0.0268162 -4.45651 
33 1 1.09793 25.1835 1.76025 0.000595435 -4.45049 
34 1 3.16904 23.8094 1.76025 0.00111649 -4.44971 
38 1 2.82136 25.5319 0.000355455 0.000767285 -4.45074 
36 1 1.44111 23.4494 0.000354522 0.00416797 -4.45393 
42 1 0.755339 26.9164 0.000354625 8.06734e-05 -4.44935 
39 1 2.47827 27.2595 1.76025 0.000160736 -4.45039 
40 1 1.79013 30.715 1.76026 9.13182e-06 -4.44981 
41 1 3.85946 29.3322 1.76026 3.91481e-05 -4.45032 
148 1 0.0650658 30.3706 0.000352945 1.87257e-05 -4.44979 
43 1 4.20416 27.6061 0.000354728 0.000139699 -4.45077 
44 1 2.13488 28.9879 0.000353392 1.16121e-05 -4.44991 
45 1 3.51489 31.0593 0.000353347 2.88468e-06 -4.44999 
145 1 0.410723 28.6447 1.76026 6.16504e-05 -4.44945 
46 1 1.09947 34.1667 1.76026 1.60559e-06 -4.45 
47 1 3.16999 32.7858 1.76026 1.10326e-06 -4.44991 
50 1 2.82498 34.5119 0.000352038 2.27744e-06 -4.44997 
49 1 1.44486 32.4411 0.000352227 5.24868e-06 -4.44991 
55 1 0.754251 35.8922 0.000352145 2.23605e-07 -4.45004 
52 1 2.47986 36.2378 1.76026 2.83819e-06 -4.45006 
53 1 1.78885 39.6884 1.76025 9.07612e-06 -4.44996 
54 1 3.86038 38.3094 1.76025 1.16134e-05 -4.45016 
161 1 0.0631459 39.343 0.00035519 2.37426e-05 -4.44974 
56 1 2.13463 37.9634 0.000353384 3.0353e-06 -4.45011 
57 1 4.20526 36.5831 0.000352833 2.53784e-06 -4.45001 
58 1 3.51515 40.0351 0.000355705 2.53493e-05 -4.45031 
158 1 0.408824 37.6176 1.76025 3.05443e-06 -4.44998 
59 1 1.09526 43.1389 1.76025 0.000417918 -4.4488 
60 1 3.16869 41.7592 1.76025 3.64532e-05 -4.45019 
64 1 2.82035 43.481 0.000356624 0.000440292 -4.44941 
62 1 1.44213 41.4129 0.000356069 0.000106518 -4.44945 
65 1 2.47296 45.2032 1.76025 0.00214323 -4.44738 
66 1 1.82189 48.6957 1.76026 0.0578976 -4.42472 
67 1 3.84721 47.2627 1.76026 0.0138525 -4.43865 
68 1 0.751149 44.8705 0.00035527 0.000666463 -4.44931 
69 1 4.20009 45.5445 0.000355588 0.00182079 -4.44695 
70 1 2.13413 46.9334 0.000353772 0.00659699 -4.44268 
71 1 3.4809 49.0096 0.000355367 0.0694134 -4.41291 
171 1 0.417079 46.6118 1.76026 0.00466236 -4.45357 
174 1 0.0983374 48.3463 0.000354765 0.0399936 -4.45436 
72 1 1.00649 52.6474 1.76025 7.36687 -4.25142 
73 1 3.09779 50.8901 1.76025 0.343111 -4.36565 
76 1 2.83045 52.8065 0.00035567 2.09309 -4.38639 
75 1 1.51369 50.5195 0.000356916 0.534525 -4.32284 
78 1 1.53385 55.1059 0.000353987 1.13997 -4.24849 
79 1 3.11313 54.7181 1.76025 0.589791 -4.33219 
80 1 3.50686 56.5978 0.000354424 0.074281 -4.4143 
81 1 1.84264 56.9131 1.76025 0.051288 -4.42441 
84 1 0.119604 57.2574 0.000353711 0.0268174 -4.45651 
85 1 2.15861 58.6694 0.000354671 0.00635372 -4.44295 
86 1 2.84797 62.1171 0.000354396 0.000274954 -4.44976 
87 1 2.49969 60.3959 1.76025 0.00177183 -4.44786 
88 1 0.440056 58.9911 1.76025 0.00312946 -4.45299 
89 1 0.776668 60.7303 0.000354184 0.000688148 -4.44922 
90 1 1.12241 62.4605 1.76025 0.000358051 -4.44894 
191 1 3.8758 58.3362 1.76025 0.0118571 -4.43942 
192 1 4.22845 60.0521 0.000354762 0.00109689 -4.44781 
91 1 3.54249 65.5637 0.000354174 2.31309e-05 -4.45029 
92 1 3.19622 63.8393 1.76025 2.82344e-05 -4.45028 
96 1 1.81629 65.9103 1.76026 6.03882e-06 -4.45001 
94 1 1.46968 64.1859 0.000353958 7.27944e-05 -4.44958 
95 1 0.0904084 66.2558 0.000352909 1.87591e-05 -4.44979 
204 1 3.88765 67.2895 1.76026 1.01872e-05 -4.45013 
98 1 2.16195 67.6352 0.000353459 3.51468e-06 -4.45011 
99 1 0.781657 69.7064 0.000351366 4.66187e-07 -4.45004 
100 1 2.50724 69.3609 1.76026 3.20666e-06 -4.45005 
101 1 0.436153 67.9811 1.76026 2.10656e-06 -4.45 
102 1 2.85234 71.0868 0.00035145 2.3902e-06 -4.44995 
103 1 1.12689 71.432 1.76026 2.17814e-06 -4.45 
202 1 4.23259 69.0158 0.000351935 1.59686e-06 -4.44999 
104 1 4.92241 0.697823 0.000352924 2.54869e-06 -4.45001 
105 1 6.6478 0.352542 1.76026 2.84262e-06 -4.45006 
106 1 6.99303 2.07816 0.000353532 3.03607e-06 -4.45011 
107 1 5.61251 4.14986 0.000355725 2.53657e-05 -4.45031 
108 1 7.33882 3.80317 1.76025 9.08331e-06 -4.44996 
109 1 5.26728 2.42411 1.76025 1.15966e-05 -4.45016 
6 1 8.71884 1.73234 1.76025 3.04688e-06 -4.44998 
110 1 7.68554 5.52764 0.000355898 0.000106499 -4.44945 
111 1 6.30731 7.59568 0.000356576 0.000440241 -4.44941 
112 1 8.03241 7.25359 1.76025 0.000418112 -4.4488 
113 1 5.95898 5.87387 1.76025 3.64379e-05 -4.45019 
116 1 4.57749 7.94364 1.76025 0.000184917 -4.45034 
117 1 6.99354 11.0481 0.000353763 0.00659691 -4.44268 
118 1 6.6547 9.31791 1.76025 0.00214291 -4.44738 
119 1 7.30578 12.8104 1.76026 0.0578996 -4.42472 
120 1 4.92758 9.65916 0.000355442 0.00182116 -4.44695 
121 1 5.28046 11.3774 1.76026 0.0138512 -4.43865 
122 1 5.64678 13.1243 0.000355234 0.069425 -4.41291 
16 1 8.37652 8.98523 0.000355138 0.000666296 -4.44931 
20 1 8.71059 10.7265 1.76026 0.00466027 -4.45357 
123 1 7.61397 14.6342 0.000356665 0.534506 -4.32285 
124 1 8.12118 16.7621 1.76025 7.36638 -4.25141 
129 1 4.49905 16.9172 1.76026 1.10306 -4.42267 
126 1 6.02988 15.0048 1.76026 0.343092 -4.36565 
128 1 6.29722 16.9212 0.000355447 2.09316 -4.38638 
130 1 6.01455 18.8328 1.76025 0.589857 -4.33219 
131 1 7.28503 21.0278 1.76025 0.0512861 -4.42441 
134 1 7.59381 19.2206 0.00035435 1.14011 -4.24849 
133 1 5.6208 20.7125 0.000354498 0.0742739 -4.4143 
136 1 5.25187 22.4509 1.76025 0.0118583 -4.43942 
137 1 6.62798 24.5106 1.76025 0.0017718 -4.44786 
138 1 8.68761 23.1058 1.76025 0.00312893 -4.45299 
139 1 8.00526 26.5753 1.76025 0.000357915 -4.44894 
140 1 6.96906 22.7841 0.000354468 0.00635385 -4.44295 
141 1 8.351 24.845 0.000354294 0.000688191 -4.44922 
142 1 6.27969 26.2318 0.000354509 0.000274963 -4.44976 
35 1 4.5502 25.8835 1.76025 0.000166981 -4.45058 
37 1 4.89922 24.1668 0.000354719 0.00109642 -4.44781 
143 1 5.93144 27.954 1.76025 2.82316e-05 -4.45028 
144 1 7.31137 30.025 1.76026 6.02523e-06 -4.45001 
147 1 5.58518 29.6784 0.000354152 2.31581e-05 -4.45029 
146 1 7.65799 28.3006 0.000354224 7.287e-05 -4.44958 
149 1 5.24002 31.4042 1.76026 1.01692e-05 -4.45013 
51 1 4.89507 33.1305 0.000351715 1.60692e-06 -4.44999 
150 1 6.62043 33.4756 1.76026 3.23047e-06 -4.45005 
151 1 8.69151 32.0958 1.76026 2.11833e-06 -4.45 
152 1 8.00077 35.5467 1.76026 2.15156e-06 -4.45 
153 1 6.96572 31.75 0.00035337 3.48451e-06 -4.45011 
154 1 6.27532 35.2016 0.000351282 2.36684e-06 -4.44995 
155 1 8.34601 33.8212 0.000351376 4.68707e-07 -4.45004 
48 1 4.55019 34.8568 1.76026 5.83761e-08 -4.44994 
156 1 5.93038 36.9278 1.76025 8.96734e-07 -4.44992 
157 1 7.31029 38.9987 1.76025 9.53682e-06 -4.44982 
160 1 7.65552 37.2725 0.000352989 5.80611e-06 -4.4499 
159 1 5.58555 38.6545 0.000354252 5.02159e-06 -4.45003 
162 1 5.24102 40.3815 1.76025 4.8482e-05 -4.4504 
63 1 4.89646 42.1074 0.000356657 0.00015972 -4.45084 
163 1 6.62282 42.4547 1.76025 0.000234322 -4.45056 
164 1 8.6898 41.0692 1.76025 6.67118e-05 -4.44941 
165 1 8.00422 44.532 1.76025 0.000967582 -4.45091 
166 1 6.9659 40.7262 0.000356144 1.75375e-05 -4.44999 
167 1 8.34568 42.7983 0.000356319 9.22833e-05 -4.44945 
168 1 6.27988 44.1819 0.000355958 0.000950547 -4.45096 
61 1 4.55018 43.8289 1.76025 0.000184887 -4.45034 
169 1 5.93103 45.9022 1.76025 0.00117121 -4.44961 
170 1 7.31077 47.979 1.76026 0.0158204 -4.45527 
173 1 5.56265 47.6143 0.000355544 0.00764624 -4.44676 
172 1 7.66169 46.2651 0.000354824 0.00560121 -4.45463 
175 1 5.17688 49.336 1.76026 0.0917802 -4.44539 
77 1 4.79366 51.0341 0.000353521 0.481911 -4.40877 
176 1 6.65181 51.279 1.76027 3.41271 -4.32278 
177 1 8.76869 50.0256 1.76026 0.477228 -4.35901 
178 1 8.40788 51.6176 0.000354445 8.358 -4.10722 
179 1 6.94361 49.644 0.000350127 0.0499762 -4.44233 
180 1 6.34383 52.8011 0.00033754 6.41768 -4.04117 
74 1 4.62862 52.8025 1.76026 1.10307 -4.42267 
181 1 4.80933 54.571 0.000352826 0.509671 -4.40056 
182 1 6.682 54.3079 1.76026 3.56757 -4.31269 
183 1 6.97757 55.9377 0.000350826 0.0372716 -4.4482 
184 1 5.59373 57.9783 0.000353996 0.0044206 -4.44849 
185 1 7.33644 57.6149 1.76026 0.0139695 -4.45612 
186 1 5.20608 56.2581 1.76025 0.0860555 -4.44614 
82 1 8.46297 53.9385 0.00035312 9.1489 -4.10766 
83 1 8.78726 55.5689 1.76025 0.888341 -4.33435 
187 1 7.68656 59.3347 0.000354318 0.00416783 -4.45393 
188 1 6.30631 61.4172 0.000355389 0.000767373 -4.45074 
189 1 8.02974 61.0688 1.76025 0.000595604 -4.45049 
190 1 5.95863 59.6946 1.76025 0.00111641 -4.44971 
193 1 4.57747 61.7688 1.76025 0.000167032 -4.45058 
93 1 8.37233 62.8017 0.000354819 8.07535e-05 -4.44935 
194 1 6.99279 64.8732 0.000353695 1.16003e-05 -4.44991 
195 1 6.6494 63.1448 1.76025 0.000160633 -4.45039 
196 1 7.33754 66.6003 1.76026 9.15668e-06 -4.44981 
197 1 4.92351 63.4914 0.000354675 0.000139638 -4.45077 
198 1 5.2682 65.2175 1.76026 3.91273e-05 -4.45032 
199 1 5.61277 66.9446 0.000353571 2.87967e-06 -4.44999 
97 1 8.71694 64.53 1.76026 6.15582e-05 -4.44945 
200 1 7.6828 68.3263 0.000352352 5.21805e-06 -4.44991 
201 1 8.02819 70.052 1.76026 1.61737e-06 -4.45001 
206 1 4.57747 70.742 1.76026 5.81703e-08 -4.44994 
203 1 5.95767 68.6711 1.76026 1.10098e-06 -4.44991 
205 1 6.30268 70.3972 0.000352318 2.28053e-06 -4.44997 
5 1 8.37341 71.7775 0.000352153 2.2404e-07 -4.45004 
