ITEM: TIMESTEP
103
ITEM: NUMBER OF ATOMS
824
ITEM: BOX BOUNDS pp pp pp
6.1181472035188797e-04 1.7944855382368800e+01
1.1609011023218872e-02 7.1781585740363084e+01
-3.6768510767569001e-04 7.0391588163264949e+00
ITEM: ATOMS id type x y z c_csym c_PE 
1 1 1.46987 1.38768 0.000384479 6.24555e-06 -4.44989 
2 1 3.19495 1.04299 1.76027 1.15289e-06 -4.44992 
3 1 3.53979 2.76981 0.000384481 5.05278e-06 -4.45003 
4 1 1.81509 3.11404 1.76027 1.01987e-05 -4.44981 
7 1 0.0901059 3.45828 0.000384481 2.53615e-05 -4.44974 
114 1 3.88421 4.49694 1.76027 5.33659e-05 -4.4504 
413 1 1.46987 1.38768 3.52015 6.24555e-06 -4.44989 
414 1 3.19495 1.04299 5.28003 1.15289e-06 -4.44992 
415 1 3.53979 2.76981 3.52015 5.05278e-06 -4.45003 
416 1 1.81509 3.11404 5.28003 1.01987e-05 -4.44981 
419 1 0.0901059 3.45828 3.52015 2.53615e-05 -4.44974 
526 1 3.88421 4.49694 5.28003 5.33659e-05 -4.4504 
8 1 2.15949 4.84154 0.000384481 1.73248e-05 -4.44998 
9 1 2.84536 8.29731 0.000384479 0.000947417 -4.45096 
10 1 2.50246 6.5702 1.76027 0.00023624 -4.45055 
11 1 0.435563 5.18452 1.76027 6.94616e-05 -4.44941 
12 1 0.779532 6.91361 0.00038448 9.01108e-05 -4.44945 
13 1 1.121 8.64727 1.76027 0.000953038 -4.4509 
115 1 4.22878 6.22284 0.000384481 0.000163173 -4.45083 
420 1 2.15949 4.84154 3.52015 1.73248e-05 -4.44998 
421 1 2.84536 8.29731 3.52015 0.000947417 -4.45096 
422 1 2.50246 6.5702 5.28003 0.00023624 -4.45055 
423 1 0.435563 5.18452 5.28003 6.94616e-05 -4.44941 
424 1 0.779532 6.91361 3.52015 9.01108e-05 -4.44945 
425 1 1.121 8.64727 5.28003 0.000953038 -4.4509 
527 1 4.22878 6.22284 3.52015 0.000163173 -4.45083 
14 1 3.56227 11.7298 0.000384475 0.00745419 -4.44686 
15 1 3.19403 10.0177 1.76027 0.00118732 -4.44963 
19 1 1.81425 12.0947 1.76027 0.0158326 -4.45531 
17 1 1.46347 10.3804 0.000384476 0.00556319 -4.45461 
18 1 0.0546939 12.4617 0.000384474 0.0397612 -4.45441 
127 1 3.94819 13.4513 1.76027 0.0917472 -4.44544 
426 1 3.56227 11.7298 3.52015 0.00745419 -4.44686 
427 1 3.19403 10.0177 5.28003 0.00118732 -4.44963 
431 1 1.81425 12.0947 5.28003 0.0158326 -4.45531 
429 1 1.46347 10.3804 3.52015 0.00556319 -4.45461 
430 1 0.0546939 12.4617 3.52015 0.0397612 -4.45441 
539 1 3.94819 13.4513 5.28003 0.0917472 -4.44544 
21 1 2.18109 13.7599 0.000384474 0.0491918 -4.44256 
22 1 0.716158 15.7347 0.000384475 8.39095 -4.10703 
23 1 2.47296 15.3946 1.76027 3.42115 -4.32231 
24 1 0.356461 14.1415 1.76027 0.491892 -4.35773 
25 1 2.7829 16.9155 0.000384479 6.42121 -4.04075 
125 1 4.33199 15.1484 0.000384476 0.483595 -4.40835 
433 1 2.18109 13.7599 3.52015 0.0491918 -4.44256 
434 1 0.716158 15.7347 3.52015 8.39095 -4.10703 
435 1 2.47296 15.3946 5.28003 3.42115 -4.32231 
436 1 0.356461 14.1415 5.28003 0.491892 -4.35773 
437 1 2.7829 16.9155 3.52015 6.42121 -4.04075 
537 1 4.33199 15.1484 3.52015 0.483595 -4.40835 
26 1 2.44635 18.4228 1.76027 3.55853 -4.3131 
27 1 1.79235 21.7293 1.76027 0.0140703 -4.45609 
28 1 3.92278 20.3724 1.76027 0.0865191 -4.44613 
29 1 0.666719 18.0549 0.000384484 9.11342 -4.10734 
30 1 2.15143 20.0528 0.000384482 0.0377485 -4.44791 
31 1 4.31851 18.685 0.000384482 0.508683 -4.40112 
32 1 3.53543 22.0926 0.000384482 0.00454545 -4.44843 
438 1 2.44635 18.4228 5.28003 3.55853 -4.3131 
439 1 1.79235 21.7293 5.28003 0.0140703 -4.45609 
440 1 3.92278 20.3724 5.28003 0.0865191 -4.44613 
441 1 0.666719 18.0549 3.52015 9.11342 -4.10734 
442 1 2.15143 20.0528 3.52015 0.0377485 -4.44791 
443 1 4.31851 18.685 3.52015 0.508683 -4.40112 
444 1 3.53543 22.0926 3.52015 0.00454545 -4.44843 
338 1 0.340747 19.6831 1.76027 0.863854 -4.33514 
341 1 0.0367228 21.3711 0.000384483 0.0276129 -4.45634 
750 1 0.340747 19.6831 5.28003 0.863854 -4.33514 
753 1 0.0367228 21.3711 3.52015 0.0276129 -4.45634 
33 1 1.09985 25.1827 1.76027 0.000605609 -4.4505 
34 1 3.17071 23.8088 1.76027 0.00112335 -4.4497 
38 1 2.82342 25.5312 0.000384476 0.000761107 -4.45074 
36 1 1.44255 23.4487 0.00038448 0.00420771 -4.45397 
42 1 0.757736 26.9157 0.000384474 8.11136e-05 -4.44935 
445 1 1.09985 25.1827 5.28003 0.000605609 -4.4505 
446 1 3.17071 23.8088 5.28003 0.00112335 -4.4497 
450 1 2.82342 25.5312 3.52015 0.000761107 -4.45074 
448 1 1.44255 23.4487 3.52015 0.00420771 -4.45397 
454 1 0.757736 26.9157 3.52015 8.11136e-05 -4.44935 
39 1 2.48073 27.2589 1.76027 0.000155866 -4.45039 
40 1 1.79291 30.7145 1.76027 9.66561e-06 -4.44982 
41 1 3.86219 29.3317 1.76027 3.66668e-05 -4.45032 
43 1 4.20665 27.6055 0.000384473 0.000136917 -4.45077 
44 1 2.13752 28.9873 0.000384472 1.16018e-05 -4.44992 
45 1 3.51769 31.0588 0.000384472 2.85211e-06 -4.45 
451 1 2.48073 27.2589 5.28003 0.000155866 -4.45039 
452 1 1.79291 30.7145 5.28003 9.66561e-06 -4.44982 
453 1 3.86219 29.3317 5.28003 3.66668e-05 -4.45032 
455 1 4.20665 27.6055 3.52015 0.000136917 -4.45077 
456 1 2.13752 28.9873 3.52015 1.16018e-05 -4.44992 
457 1 3.51769 31.0588 3.52015 2.85211e-06 -4.45 
354 1 0.0677743 30.3701 0.000384471 1.79476e-05 -4.4498 
351 1 0.413341 28.6441 1.76027 6.12872e-05 -4.44946 
766 1 0.0677743 30.3701 3.52015 1.79476e-05 -4.4498 
763 1 0.413341 28.6441 5.28003 6.12872e-05 -4.44946 
46 1 1.10221 34.1666 1.76027 1.4486e-06 -4.45002 
47 1 3.17277 32.7856 1.76027 1.2285e-06 -4.44992 
50 1 2.82762 34.5119 0.000384476 2.14582e-06 -4.44997 
49 1 1.44762 32.4408 0.000384473 5.04869e-06 -4.44992 
55 1 0.756801 35.8923 0.000384479 2.23183e-07 -4.45006 
458 1 1.10221 34.1666 5.28003 1.4486e-06 -4.45002 
459 1 3.17277 32.7856 5.28003 1.2285e-06 -4.44992 
462 1 2.82762 34.5119 3.52015 2.14582e-06 -4.44997 
461 1 1.44762 32.4408 3.52015 5.04869e-06 -4.44992 
467 1 0.756801 35.8923 3.52015 2.23183e-07 -4.45006 
52 1 2.48243 36.238 1.76027 3.32196e-06 -4.45007 
53 1 1.7913 39.6887 1.76027 8.54778e-06 -4.44996 
54 1 3.86283 38.3096 1.76027 1.23877e-05 -4.45016 
56 1 2.13712 37.9637 0.000384481 3.60371e-06 -4.45012 
57 1 4.20776 36.5832 0.00038448 2.21292e-06 -4.45001 
58 1 3.51762 40.0354 0.000384482 2.5753e-05 -4.45031 
464 1 2.48243 36.238 5.28003 3.32196e-06 -4.45007 
465 1 1.7913 39.6887 5.28003 8.54778e-06 -4.44996 
466 1 3.86283 38.3096 5.28003 1.23877e-05 -4.45016 
468 1 2.13712 37.9637 3.52015 3.60371e-06 -4.45012 
469 1 4.20776 36.5832 3.52015 2.21292e-06 -4.45001 
470 1 3.51762 40.0354 3.52015 2.5753e-05 -4.45031 
367 1 0.065509 39.3433 0.000384482 2.53615e-05 -4.44974 
364 1 0.411255 37.6179 1.76027 3.06619e-06 -4.44998 
779 1 0.065509 39.3433 3.52015 2.53615e-05 -4.44974 
776 1 0.411255 37.6179 5.28003 3.06619e-06 -4.44998 
59 1 1.09788 43.1391 1.76027 0.000421307 -4.44881 
60 1 3.17122 41.7595 1.76027 3.57937e-05 -4.45019 
64 1 2.82294 43.4813 0.000384479 0.000435486 -4.44942 
62 1 1.44467 41.4132 0.000384481 0.000107699 -4.44945 
471 1 1.09788 43.1391 5.28003 0.000421307 -4.44881 
472 1 3.17122 41.7595 5.28003 3.57937e-05 -4.45019 
476 1 2.82294 43.4813 3.52015 0.000435486 -4.44942 
474 1 1.44467 41.4132 3.52015 0.000107699 -4.44945 
65 1 2.4754 45.2035 1.76027 0.00216295 -4.44738 
66 1 1.8242 48.6957 1.76027 0.0578319 -4.42455 
67 1 3.84974 47.2629 1.76027 0.0138522 -4.43868 
68 1 0.753674 44.8708 0.000384478 0.000668477 -4.44928 
69 1 4.20267 45.5449 0.000384477 0.00177962 -4.44699 
70 1 2.13652 46.9335 0.000384476 0.00665327 -4.44261 
71 1 3.48318 49.0094 0.000384476 0.0703562 -4.41287 
477 1 2.4754 45.2035 5.28003 0.00216295 -4.44738 
478 1 1.8242 48.6957 5.28003 0.0578319 -4.42455 
479 1 3.84974 47.2629 5.28003 0.0138522 -4.43868 
480 1 0.753674 44.8708 3.52015 0.000668477 -4.44928 
481 1 4.20267 45.5449 3.52015 0.00177962 -4.44699 
482 1 2.13652 46.9335 3.52015 0.00665327 -4.44261 
483 1 3.48318 49.0094 3.52015 0.0703562 -4.41287 
377 1 0.419519 46.612 1.76027 0.00460201 -4.45352 
380 1 0.100921 48.3467 0.000384475 0.0397612 -4.45441 
789 1 0.419519 46.612 5.28003 0.00460201 -4.45352 
792 1 0.100921 48.3467 3.52015 0.0397612 -4.45441 
72 1 1.00798 52.6613 1.76027 7.572 -4.25241 
73 1 3.09954 50.8902 1.76027 0.350507 -4.36424 
76 1 2.83215 52.8055 0.000384479 2.07251 -4.38718 
75 1 1.51608 50.5197 0.000384476 0.550359 -4.31945 
484 1 1.00798 52.6613 5.28003 7.572 -4.25241 
485 1 3.09954 50.8902 5.28003 0.350507 -4.36424 
488 1 2.83215 52.8055 3.52015 2.07251 -4.38718 
487 1 1.51608 50.5197 3.52015 0.550359 -4.31945 
78 1 1.53363 55.1027 0.000384483 1.09566 -4.25168 
79 1 3.11271 54.7163 1.76027 0.573798 -4.334 
80 1 3.50577 56.5962 0.000384483 0.0744247 -4.41419 
81 1 1.84191 56.9114 1.76027 0.0518109 -4.4243 
84 1 0.118892 57.256 0.000384481 0.0276128 -4.45634 
490 1 1.53363 55.1027 3.52015 1.09566 -4.25168 
491 1 3.11271 54.7163 5.28003 0.573798 -4.334 
492 1 3.50577 56.5962 3.52015 0.0744247 -4.41419 
493 1 1.84191 56.9114 5.28003 0.0518109 -4.4243 
496 1 0.118892 57.256 3.52015 0.0276128 -4.45634 
85 1 2.15738 58.6681 0.00038448 0.00640924 -4.44291 
86 1 2.84587 62.1161 0.000384475 0.000274054 -4.44974 
87 1 2.49809 60.3948 1.76027 0.00175809 -4.44783 
88 1 0.438895 58.9899 1.76027 0.00318681 -4.45302 
89 1 0.774994 60.7292 0.000384477 0.000685456 -4.44923 
90 1 1.12024 62.4595 1.76027 0.000355847 -4.44894 
191 1 3.87439 58.3351 1.76027 0.0119185 -4.43937 
192 1 4.22677 60.0511 0.000384477 0.00111217 -4.44775 
497 1 2.15738 58.6681 3.52015 0.00640924 -4.44291 
498 1 2.84587 62.1161 3.52015 0.000274054 -4.44974 
499 1 2.49809 60.3948 5.28003 0.00175809 -4.44783 
500 1 0.438895 58.9899 5.28003 0.00318681 -4.45302 
501 1 0.774994 60.7292 3.52015 0.000685456 -4.44923 
502 1 1.12024 62.4595 5.28003 0.000355847 -4.44894 
603 1 3.87439 58.3351 5.28003 0.0119185 -4.43937 
604 1 4.22677 60.0511 3.52015 0.00111217 -4.44775 
91 1 3.53985 65.5629 0.000384472 2.3115e-05 -4.45028 
92 1 3.19374 63.8383 1.76027 2.72729e-05 -4.45027 
96 1 1.81368 65.9094 1.76027 5.01792e-06 -4.45001 
94 1 1.46721 64.1849 0.000384472 7.04236e-05 -4.44958 
95 1 0.0878406 66.255 0.000384471 1.79476e-05 -4.4498 
204 1 3.88497 67.2889 1.76027 9.30323e-06 -4.45012 
503 1 3.53985 65.5629 3.52015 2.3115e-05 -4.45028 
504 1 3.19374 63.8383 5.28003 2.72729e-05 -4.45027 
508 1 1.81368 65.9094 5.28003 5.01792e-06 -4.45001 
506 1 1.46721 64.1849 3.52015 7.04236e-05 -4.44958 
507 1 0.0878406 66.255 3.52015 1.79476e-05 -4.4498 
616 1 3.88497 67.2889 5.28003 9.30323e-06 -4.45012 
98 1 2.15936 67.6346 0.000384472 3.55951e-06 -4.45011 
99 1 0.779046 69.706 0.000384474 2.73002e-07 -4.45006 
100 1 2.50463 69.3605 1.76027 3.0156e-06 -4.45005 
101 1 0.433545 67.9804 1.76027 1.73532e-06 -4.45001 
102 1 2.84982 71.0866 0.000384477 2.00547e-06 -4.44996 
103 1 1.12445 71.4318 1.76027 1.90596e-06 -4.45 
202 1 4.22992 69.0153 0.000384474 1.40364e-06 -4.44999 
510 1 2.15936 67.6346 3.52015 3.55951e-06 -4.45011 
511 1 0.779046 69.706 3.52015 2.73002e-07 -4.45006 
512 1 2.50463 69.3605 5.28003 3.0156e-06 -4.45005 
513 1 0.433545 67.9804 5.28003 1.73532e-06 -4.45001 
514 1 2.84982 71.0866 3.52015 2.00547e-06 -4.44996 
515 1 1.12445 71.4318 5.28003 1.90596e-06 -4.45 
614 1 4.22992 69.0153 3.52015 1.40364e-06 -4.44999 
104 1 4.91998 0.69823 0.000384478 2.21292e-06 -4.45001 
105 1 6.6453 0.352984 1.76027 3.32196e-06 -4.45007 
106 1 6.99062 2.07873 0.00038448 3.60372e-06 -4.45012 
107 1 5.61011 4.15046 0.000384481 2.5753e-05 -4.45031 
108 1 7.33643 3.80375 1.76027 8.54779e-06 -4.44996 
109 1 5.26491 2.42466 1.76027 1.23877e-05 -4.45016 
516 1 4.91998 0.69823 3.52015 2.21292e-06 -4.45001 
517 1 6.6453 0.352984 5.28003 3.32196e-06 -4.45007 
518 1 6.99062 2.07873 3.52015 3.60372e-06 -4.45012 
519 1 5.61011 4.15046 3.52015 2.5753e-05 -4.45031 
520 1 7.33643 3.80375 5.28003 8.54779e-06 -4.44996 
521 1 5.26491 2.42466 5.28003 1.23877e-05 -4.45016 
212 1 8.71648 1.73288 1.76027 3.06619e-06 -4.44998 
624 1 8.71648 1.73288 5.28003 3.06619e-06 -4.44998 
110 1 7.68306 5.52819 0.000384481 0.000107699 -4.44945 
111 1 6.30479 7.59635 0.000384479 0.000435486 -4.44942 
112 1 8.02985 7.25409 1.76027 0.000421307 -4.44881 
113 1 5.95652 5.87452 1.76027 3.57937e-05 -4.45019 
116 1 4.57507 7.94446 1.76027 0.000180707 -4.45035 
522 1 7.68306 5.52819 3.52015 0.000107699 -4.44945 
523 1 6.30479 7.59635 3.52015 0.000435486 -4.44942 
524 1 8.02985 7.25409 5.28003 0.000421307 -4.44881 
525 1 5.95652 5.87452 5.28003 3.57937e-05 -4.45019 
528 1 4.57507 7.94446 5.28003 0.000180707 -4.45035 
117 1 6.99121 11.0485 0.000384475 0.00665327 -4.44261 
118 1 6.65233 9.31851 1.76027 0.00216295 -4.44738 
119 1 7.30354 12.8107 1.76027 0.0578319 -4.42455 
120 1 4.92507 9.65992 0.000384477 0.00177962 -4.44699 
121 1 5.27799 11.3779 1.76027 0.0138522 -4.43868 
122 1 5.64455 13.1244 0.000384475 0.0703562 -4.41287 
529 1 6.99121 11.0485 3.52015 0.00665327 -4.44261 
530 1 6.65233 9.31851 5.28003 0.00216295 -4.44738 
531 1 7.30354 12.8107 5.28003 0.0578319 -4.42455 
532 1 4.92507 9.65992 3.52015 0.00177962 -4.44699 
533 1 5.27799 11.3779 5.28003 0.0138522 -4.43868 
534 1 5.64455 13.1244 3.52015 0.0703562 -4.41287 
222 1 8.37406 8.98579 0.000384478 0.000668477 -4.44928 
226 1 8.70822 10.727 1.76027 0.004602 -4.45352 
634 1 8.37406 8.98579 3.52015 0.000668477 -4.44928 
638 1 8.70822 10.727 5.28003 0.004602 -4.45352 
123 1 7.61165 14.6347 0.000384475 0.550359 -4.31945 
124 1 8.11975 16.7763 1.76027 7.572 -4.25241 
129 1 4.49784 16.9167 1.76027 1.09984 -4.42269 
126 1 6.0282 15.0052 1.76027 0.350507 -4.36424 
128 1 6.29558 16.9206 0.000384479 2.07251 -4.38718 
535 1 7.61165 14.6347 3.52015 0.550359 -4.31945 
536 1 8.11975 16.7763 5.28003 7.572 -4.25241 
541 1 4.49784 16.9167 5.28003 1.09984 -4.42269 
538 1 6.0282 15.0052 5.28003 0.350507 -4.36424 
540 1 6.29558 16.9206 3.52015 2.07251 -4.38718 
130 1 6.01503 18.8313 1.76027 0.573798 -4.334 
131 1 7.28582 21.0264 1.76027 0.0518109 -4.4243 
134 1 7.5941 19.2177 0.000384484 1.09565 -4.25168 
133 1 5.62196 20.7113 0.000384483 0.0744247 -4.41419 
542 1 6.01503 18.8313 5.28003 0.573798 -4.334 
543 1 7.28582 21.0264 5.28003 0.0518109 -4.4243 
546 1 7.5941 19.2177 3.52015 1.09565 -4.25168 
545 1 5.62196 20.7113 3.52015 0.0744247 -4.41419 
136 1 5.25335 22.4501 1.76027 0.0119185 -4.43937 
137 1 6.62965 24.5098 1.76027 0.00175809 -4.44783 
138 1 8.68884 23.1049 1.76027 0.00318681 -4.45302 
139 1 8.00749 26.5745 1.76027 0.000355847 -4.44894 
140 1 6.97036 22.7831 0.000384481 0.00640925 -4.44291 
141 1 8.35274 24.8442 0.000384477 0.000685456 -4.44923 
142 1 6.28186 26.2311 0.000384475 0.000274054 -4.44974 
35 1 4.55232 25.8828 1.76027 0.000166385 -4.45055 
37 1 4.90097 24.1662 0.000384478 0.00111217 -4.44775 
548 1 5.25335 22.4501 5.28003 0.0119185 -4.43937 
549 1 6.62965 24.5098 5.28003 0.00175809 -4.44783 
550 1 8.68884 23.1049 5.28003 0.00318681 -4.45302 
551 1 8.00749 26.5745 5.28003 0.000355847 -4.44894 
552 1 6.97036 22.7831 3.52015 0.00640925 -4.44291 
553 1 8.35274 24.8442 3.52015 0.000685456 -4.44923 
554 1 6.28186 26.2311 3.52015 0.000274054 -4.44974 
447 1 4.55232 25.8828 5.28003 0.000166385 -4.45055 
449 1 4.90097 24.1662 3.52015 0.00111217 -4.44775 
143 1 5.93399 27.9533 1.76027 2.72729e-05 -4.45027 
144 1 7.31405 30.0244 1.76027 5.01792e-06 -4.45001 
147 1 5.58788 29.6779 0.000384471 2.3115e-05 -4.45028 
146 1 7.66053 28.2999 0.000384472 7.04237e-05 -4.44958 
149 1 5.24276 31.4039 1.76027 9.30324e-06 -4.45012 
555 1 5.93399 27.9533 5.28003 2.72729e-05 -4.45027 
556 1 7.31405 30.0244 5.28003 5.01792e-06 -4.45001 
559 1 5.58788 29.6779 3.52015 2.3115e-05 -4.45028 
558 1 7.66053 28.2999 3.52015 7.04237e-05 -4.44958 
561 1 5.24276 31.4039 5.28003 9.30324e-06 -4.45012 
51 1 4.89781 33.1303 0.000384474 1.40364e-06 -4.44999 
150 1 6.6231 33.4755 1.76027 3.0156e-06 -4.45005 
151 1 8.69419 32.0955 1.76027 1.73532e-06 -4.45001 
152 1 8.00329 35.5468 1.76027 1.90596e-06 -4.45 
153 1 6.96837 31.7496 0.000384472 3.55952e-06 -4.45011 
154 1 6.27791 35.2016 0.000384478 2.00547e-06 -4.44996 
155 1 8.34869 33.821 0.000384475 2.73002e-07 -4.45006 
48 1 4.55278 34.8568 1.76027 1.1847e-08 -4.44995 
463 1 4.89781 33.1303 3.52015 1.40364e-06 -4.44999 
562 1 6.6231 33.4755 5.28003 3.0156e-06 -4.45005 
563 1 8.69419 32.0955 5.28003 1.73532e-06 -4.45001 
564 1 8.00329 35.5468 5.28003 1.90596e-06 -4.45 
565 1 6.96837 31.7496 3.52015 3.55952e-06 -4.45011 
566 1 6.27791 35.2016 3.52015 2.00547e-06 -4.44996 
567 1 8.34869 33.821 3.52015 2.73002e-07 -4.45006 
460 1 4.55278 34.8568 5.28003 1.1847e-08 -4.44995 
156 1 5.93279 36.928 1.76027 1.15289e-06 -4.44992 
157 1 7.31265 38.999 1.76027 1.01987e-05 -4.44981 
160 1 7.65787 37.2727 0.000384481 6.24555e-06 -4.44989 
159 1 5.58795 38.6548 0.000384482 5.05278e-06 -4.45003 
162 1 5.24353 40.3819 1.76027 5.33659e-05 -4.4504 
568 1 5.93279 36.928 5.28003 1.15289e-06 -4.44992 
569 1 7.31265 38.999 5.28003 1.01987e-05 -4.44981 
572 1 7.65787 37.2727 3.52015 6.24555e-06 -4.44989 
571 1 5.58795 38.6548 3.52015 5.05278e-06 -4.45003 
574 1 5.24353 40.3819 5.28003 5.33659e-05 -4.4504 
63 1 4.89895 42.1078 0.000384481 0.000163173 -4.45083 
163 1 6.62527 42.4552 1.76027 0.00023624 -4.45055 
164 1 8.69217 41.0695 1.76027 6.94617e-05 -4.44941 
165 1 8.00674 44.5323 1.76027 0.000953038 -4.4509 
166 1 6.96825 40.7265 0.000384482 1.73248e-05 -4.44998 
167 1 8.3482 42.7986 0.00038448 9.01109e-05 -4.44945 
168 1 6.28238 44.1823 0.000384479 0.000947417 -4.45096 
61 1 4.55266 43.8294 1.76027 0.000180707 -4.45035 
475 1 4.89895 42.1078 3.52015 0.000163173 -4.45083 
575 1 6.62527 42.4552 5.28003 0.00023624 -4.45055 
576 1 8.69217 41.0695 5.28003 6.94617e-05 -4.44941 
577 1 8.00674 44.5323 5.28003 0.000953038 -4.4509 
578 1 6.96825 40.7265 3.52015 1.73248e-05 -4.44998 
579 1 8.3482 42.7986 3.52015 9.01109e-05 -4.44945 
580 1 6.28238 44.1823 3.52015 0.000947417 -4.45096 
473 1 4.55266 43.8294 5.28003 0.000180707 -4.45035 
169 1 5.9337 45.9027 1.76027 0.00118732 -4.44963 
170 1 7.31349 47.9797 1.76027 0.0158326 -4.45531 
173 1 5.56547 47.6148 0.000384476 0.00745419 -4.44686 
172 1 7.66427 46.2654 0.000384477 0.00556319 -4.45461 
175 1 5.17955 49.3363 1.76027 0.0917472 -4.44544 
581 1 5.9337 45.9027 5.28003 0.00118732 -4.44963 
582 1 7.31349 47.9797 5.28003 0.0158326 -4.45531 
585 1 5.56547 47.6148 3.52015 0.00745419 -4.44686 
584 1 7.66427 46.2654 3.52015 0.00556319 -4.45461 
587 1 5.17955 49.3363 5.28003 0.0917472 -4.44544 
77 1 4.79574 51.0334 0.000384477 0.483595 -4.40835 
176 1 6.65477 51.2796 1.76027 3.42115 -4.32231 
177 1 8.77128 50.0265 1.76027 0.491892 -4.35773 
178 1 8.41158 51.6197 0.000384476 8.39095 -4.10703 
179 1 6.94665 49.6449 0.000384473 0.0491918 -4.44256 
180 1 6.34483 52.8005 0.000384487 6.42121 -4.04075 
74 1 4.6299 52.8017 1.76027 1.09984 -4.42269 
489 1 4.79574 51.0334 3.52015 0.483595 -4.40835 
588 1 6.65477 51.2796 5.28003 3.42115 -4.32231 
589 1 8.77128 50.0265 5.28003 0.491892 -4.35773 
590 1 8.41158 51.6197 3.52015 8.39095 -4.10703 
591 1 6.94665 49.6449 3.52015 0.0491918 -4.44256 
592 1 6.34483 52.8005 3.52015 6.42121 -4.04075 
486 1 4.6299 52.8017 5.28003 1.09984 -4.42269 
181 1 4.80923 54.57 0.000384482 0.508683 -4.40112 
182 1 6.68138 54.3077 1.76027 3.55853 -4.3131 
183 1 6.97631 55.9378 0.000384479 0.0377485 -4.44791 
184 1 5.5923 57.9776 0.000384481 0.00454545 -4.44843 
185 1 7.33539 57.6142 1.76027 0.0140703 -4.45609 
186 1 5.20496 56.2574 1.76027 0.0865191 -4.44613 
593 1 4.80923 54.57 3.52015 0.508683 -4.40112 
594 1 6.68138 54.3077 5.28003 3.55853 -4.3131 
595 1 6.97631 55.9378 3.52015 0.0377485 -4.44791 
596 1 5.5923 57.9776 3.52015 0.00454545 -4.44843 
597 1 7.33539 57.6142 5.28003 0.0140703 -4.45609 
598 1 5.20496 56.2574 5.28003 0.0865191 -4.44613 
288 1 8.46102 53.9399 0.000384483 9.11342 -4.10734 
289 1 8.78699 55.5681 1.76027 0.863854 -4.33514 
700 1 8.46102 53.9399 3.52015 9.11342 -4.10734 
701 1 8.78699 55.5681 5.28003 0.863854 -4.33514 
187 1 7.68519 59.3337 0.000384479 0.00420771 -4.45397 
188 1 6.30431 61.4162 0.000384476 0.000761106 -4.45074 
189 1 8.02789 61.0677 1.76027 0.000605609 -4.4505 
190 1 5.95702 59.6937 1.76027 0.00112335 -4.4497 
193 1 4.57542 61.7678 1.76027 0.000166385 -4.45055 
599 1 7.68519 59.3337 3.52015 0.00420771 -4.45397 
600 1 6.30431 61.4162 3.52015 0.000761106 -4.45074 
601 1 8.02789 61.0677 5.28003 0.000605609 -4.4505 
602 1 5.95702 59.6937 5.28003 0.00112335 -4.4497 
605 1 4.57542 61.7678 5.28003 0.000166385 -4.45055 
299 1 8.37 62.8007 0.000384474 8.11136e-05 -4.44935 
711 1 8.37 62.8007 3.52015 8.11136e-05 -4.44935 
194 1 6.99022 64.8723 0.000384472 1.16018e-05 -4.44992 
195 1 6.64701 63.1439 1.76027 0.000155866 -4.45039 
196 1 7.33483 66.5995 1.76027 9.6656e-06 -4.44982 
197 1 4.92109 63.4904 0.000384473 0.000136917 -4.45077 
198 1 5.26555 65.2167 1.76027 3.66668e-05 -4.45032 
199 1 5.61005 66.9438 0.000384472 2.85211e-06 -4.45 
606 1 6.99022 64.8723 3.52015 1.16018e-05 -4.44992 
607 1 6.64701 63.1439 5.28003 0.000155866 -4.45039 
608 1 7.33483 66.5995 5.28003 9.6656e-06 -4.44982 
609 1 4.92109 63.4904 3.52015 0.000136917 -4.45077 
610 1 5.26555 65.2167 5.28003 3.66668e-05 -4.45032 
611 1 5.61005 66.9438 3.52015 2.85211e-06 -4.45 
303 1 8.7144 64.5291 1.76027 6.12872e-05 -4.44946 
715 1 8.7144 64.5291 5.28003 6.12872e-05 -4.44946 
200 1 7.68012 68.3258 0.000384473 5.04868e-06 -4.44992 
201 1 8.02553 70.0516 1.76027 1.4486e-06 -4.45002 
206 1 4.57496 70.7417 1.76027 1.18472e-08 -4.44995 
203 1 5.95497 68.6705 1.76027 1.2285e-06 -4.44992 
205 1 6.30012 70.3969 0.000384475 2.14582e-06 -4.44997 
612 1 7.68012 68.3258 3.52015 5.04868e-06 -4.44992 
613 1 8.02553 70.0516 5.28003 1.4486e-06 -4.45002 
618 1 4.57496 70.7417 5.28003 1.18472e-08 -4.44995 
615 1 5.95497 68.6705 5.28003 1.2285e-06 -4.44992 
617 1 6.30012 70.3969 3.52015 2.14582e-06 -4.44997 
211 1 8.37094 71.7773 0.000384477 2.23183e-07 -4.45006 
623 1 8.37094 71.7773 3.52015 2.23183e-07 -4.45006 
207 1 10.442 1.38768 0.000384479 6.24555e-06 -4.44989 
208 1 12.1671 1.04299 1.76027 1.15289e-06 -4.44992 
209 1 12.5119 2.76981 0.000384481 5.05278e-06 -4.45003 
210 1 10.7872 3.11404 1.76027 1.01987e-05 -4.44981 
213 1 9.06223 3.45828 0.000384481 2.53615e-05 -4.44974 
320 1 12.8563 4.49694 1.76027 5.33659e-05 -4.4504 
619 1 10.442 1.38768 3.52015 6.24555e-06 -4.44989 
620 1 12.1671 1.04299 5.28003 1.15289e-06 -4.44992 
621 1 12.5119 2.76981 3.52015 5.05278e-06 -4.45003 
622 1 10.7872 3.11404 5.28003 1.01987e-05 -4.44981 
625 1 9.06223 3.45828 3.52015 2.53615e-05 -4.44974 
732 1 12.8563 4.49694 5.28003 5.33659e-05 -4.4504 
214 1 11.1316 4.84154 0.000384481 1.73248e-05 -4.44998 
215 1 11.8175 8.29731 0.000384479 0.000947417 -4.45096 
216 1 11.4746 6.5702 1.76027 0.00023624 -4.45055 
217 1 9.40769 5.18452 1.76027 6.94616e-05 -4.44941 
218 1 9.75165 6.91361 0.00038448 9.01108e-05 -4.44945 
219 1 10.0931 8.64727 1.76027 0.000953038 -4.4509 
321 1 13.2009 6.22284 0.000384481 0.000163173 -4.45083 
626 1 11.1316 4.84154 3.52015 1.73248e-05 -4.44998 
627 1 11.8175 8.29731 3.52015 0.000947417 -4.45096 
628 1 11.4746 6.5702 5.28003 0.00023624 -4.45055 
629 1 9.40769 5.18452 5.28003 6.94616e-05 -4.44941 
630 1 9.75165 6.91361 3.52015 9.01108e-05 -4.44945 
631 1 10.0931 8.64727 5.28003 0.000953038 -4.4509 
733 1 13.2009 6.22284 3.52015 0.000163173 -4.45083 
220 1 12.5344 11.7298 0.000384475 0.00745419 -4.44686 
221 1 12.1662 10.0177 1.76027 0.00118732 -4.44963 
225 1 10.7864 12.0947 1.76027 0.0158326 -4.45531 
223 1 10.4356 10.3804 0.000384476 0.00556319 -4.45461 
224 1 9.02682 12.4617 0.000384474 0.0397612 -4.45441 
333 1 12.9203 13.4513 1.76027 0.0917472 -4.44544 
632 1 12.5344 11.7298 3.52015 0.00745419 -4.44686 
633 1 12.1662 10.0177 5.28003 0.00118732 -4.44963 
637 1 10.7864 12.0947 5.28003 0.0158326 -4.45531 
635 1 10.4356 10.3804 3.52015 0.00556319 -4.45461 
636 1 9.02682 12.4617 3.52015 0.0397612 -4.45441 
745 1 12.9203 13.4513 5.28003 0.0917472 -4.44544 
227 1 11.1532 13.7599 0.000384474 0.0491918 -4.44256 
228 1 9.68828 15.7347 0.000384475 8.39095 -4.10703 
229 1 11.4451 15.3946 1.76027 3.42115 -4.32231 
230 1 9.32858 14.1415 1.76027 0.491892 -4.35773 
231 1 11.755 16.9155 0.000384478 6.42121 -4.04075 
331 1 13.3041 15.1484 0.000384476 0.483595 -4.40835 
639 1 11.1532 13.7599 3.52015 0.0491918 -4.44256 
640 1 9.68828 15.7347 3.52015 8.39095 -4.10703 
641 1 11.4451 15.3946 5.28003 3.42115 -4.32231 
642 1 9.32858 14.1415 5.28003 0.491892 -4.35773 
643 1 11.755 16.9155 3.52015 6.42121 -4.04075 
743 1 13.3041 15.1484 3.52015 0.483595 -4.40835 
132 1 9.31287 19.6831 1.76027 0.863854 -4.33514 
135 1 9.00884 21.3711 0.000384483 0.0276129 -4.45634 
544 1 9.31287 19.6831 5.28003 0.863854 -4.33514 
547 1 9.00884 21.3711 3.52015 0.0276129 -4.45634 
232 1 11.4185 18.4228 1.76027 3.55853 -4.3131 
233 1 10.7645 21.7293 1.76027 0.0140703 -4.45609 
234 1 12.8949 20.3724 1.76027 0.0865191 -4.44613 
235 1 9.63884 18.0549 0.000384484 9.11342 -4.10734 
236 1 11.1236 20.0528 0.000384482 0.0377485 -4.44791 
237 1 13.2906 18.685 0.000384482 0.508683 -4.40112 
238 1 12.5076 22.0926 0.000384482 0.00454545 -4.44843 
644 1 11.4185 18.4228 5.28003 3.55853 -4.3131 
645 1 10.7645 21.7293 5.28003 0.0140703 -4.45609 
646 1 12.8949 20.3724 5.28003 0.0865191 -4.44613 
647 1 9.63884 18.0549 3.52015 9.11342 -4.10734 
648 1 11.1236 20.0528 3.52015 0.0377485 -4.44791 
649 1 13.2906 18.685 3.52015 0.508683 -4.40112 
650 1 12.5076 22.0926 3.52015 0.00454545 -4.44843 
239 1 10.072 25.1827 1.76027 0.000605609 -4.4505 
240 1 12.1428 23.8088 1.76027 0.00112335 -4.4497 
244 1 11.7955 25.5312 0.000384476 0.000761107 -4.45074 
242 1 10.4147 23.4487 0.00038448 0.00420771 -4.45397 
248 1 9.72986 26.9157 0.000384474 8.11136e-05 -4.44935 
651 1 10.072 25.1827 5.28003 0.000605609 -4.4505 
652 1 12.1428 23.8088 5.28003 0.00112335 -4.4497 
656 1 11.7955 25.5312 3.52015 0.000761107 -4.45074 
654 1 10.4147 23.4487 3.52015 0.00420771 -4.45397 
660 1 9.72986 26.9157 3.52015 8.11136e-05 -4.44935 
148 1 9.0399 30.3701 0.000384471 1.79476e-05 -4.4498 
145 1 9.38546 28.6441 1.76027 6.12872e-05 -4.44946 
560 1 9.0399 30.3701 3.52015 1.79476e-05 -4.4498 
557 1 9.38546 28.6441 5.28003 6.12872e-05 -4.44946 
245 1 11.4528 27.2589 1.76027 0.000155866 -4.45039 
246 1 10.765 30.7145 1.76027 9.66561e-06 -4.44982 
247 1 12.8343 29.3317 1.76027 3.66668e-05 -4.45032 
249 1 13.1788 27.6055 0.000384473 0.000136917 -4.45077 
250 1 11.1096 28.9873 0.000384472 1.16018e-05 -4.44992 
251 1 12.4898 31.0588 0.000384472 2.85211e-06 -4.45 
657 1 11.4528 27.2589 5.28003 0.000155866 -4.45039 
658 1 10.765 30.7145 5.28003 9.66561e-06 -4.44982 
659 1 12.8343 29.3317 5.28003 3.66668e-05 -4.45032 
661 1 13.1788 27.6055 3.52015 0.000136917 -4.45077 
662 1 11.1096 28.9873 3.52015 1.16018e-05 -4.44992 
663 1 12.4898 31.0588 3.52015 2.85211e-06 -4.45 
252 1 10.0743 34.1666 1.76027 1.4486e-06 -4.45002 
253 1 12.1449 32.7856 1.76027 1.2285e-06 -4.44992 
256 1 11.7997 34.5119 0.000384476 2.14582e-06 -4.44997 
255 1 10.4197 32.4408 0.000384473 5.04869e-06 -4.44992 
261 1 9.72892 35.8923 0.000384479 2.23183e-07 -4.45006 
664 1 10.0743 34.1666 5.28003 1.4486e-06 -4.45002 
665 1 12.1449 32.7856 5.28003 1.2285e-06 -4.44992 
668 1 11.7997 34.5119 3.52015 2.14582e-06 -4.44997 
667 1 10.4197 32.4408 3.52015 5.04869e-06 -4.44992 
673 1 9.72892 35.8923 3.52015 2.23183e-07 -4.45006 
161 1 9.03763 39.3433 0.000384482 2.53615e-05 -4.44974 
158 1 9.38338 37.6179 1.76027 3.06619e-06 -4.44998 
573 1 9.03763 39.3433 3.52015 2.53615e-05 -4.44974 
570 1 9.38338 37.6179 5.28003 3.06619e-06 -4.44998 
258 1 11.4546 36.238 1.76027 3.32196e-06 -4.45007 
259 1 10.7634 39.6887 1.76027 8.54778e-06 -4.44996 
260 1 12.835 38.3096 1.76027 1.23877e-05 -4.45016 
262 1 11.1092 37.9637 0.000384481 3.60371e-06 -4.45012 
263 1 13.1799 36.5832 0.00038448 2.21292e-06 -4.45001 
264 1 12.4897 40.0354 0.000384482 2.5753e-05 -4.45031 
670 1 11.4546 36.238 5.28003 3.32196e-06 -4.45007 
671 1 10.7634 39.6887 5.28003 8.54778e-06 -4.44996 
672 1 12.835 38.3096 5.28003 1.23877e-05 -4.45016 
674 1 11.1092 37.9637 3.52015 3.60371e-06 -4.45012 
675 1 13.1799 36.5832 3.52015 2.21292e-06 -4.45001 
676 1 12.4897 40.0354 3.52015 2.5753e-05 -4.45031 
265 1 10.07 43.1391 1.76027 0.000421307 -4.44881 
266 1 12.1433 41.7595 1.76027 3.57937e-05 -4.45019 
270 1 11.7951 43.4813 0.000384479 0.000435486 -4.44942 
268 1 10.4168 41.4132 0.000384482 0.000107699 -4.44945 
677 1 10.07 43.1391 5.28003 0.000421307 -4.44881 
678 1 12.1433 41.7595 5.28003 3.57937e-05 -4.45019 
682 1 11.7951 43.4813 3.52015 0.000435486 -4.44942 
680 1 10.4168 41.4132 3.52015 0.000107699 -4.44945 
171 1 9.39164 46.612 1.76027 0.00460201 -4.45352 
174 1 9.07304 48.3467 0.000384476 0.0397612 -4.45441 
583 1 9.39164 46.612 5.28003 0.00460201 -4.45352 
586 1 9.07304 48.3467 3.52015 0.0397612 -4.45441 
271 1 11.4475 45.2035 1.76027 0.00216295 -4.44738 
272 1 10.7963 48.6957 1.76027 0.0578319 -4.42455 
273 1 12.8219 47.2629 1.76027 0.0138522 -4.43868 
274 1 9.7258 44.8708 0.000384478 0.000668477 -4.44928 
275 1 13.1748 45.5449 0.000384477 0.00177962 -4.44699 
276 1 11.1086 46.9335 0.000384476 0.00665327 -4.44261 
277 1 12.4553 49.0094 0.000384475 0.0703562 -4.41287 
683 1 11.4475 45.2035 5.28003 0.00216295 -4.44738 
684 1 10.7963 48.6957 5.28003 0.0578319 -4.42455 
685 1 12.8219 47.2629 5.28003 0.0138522 -4.43868 
686 1 9.7258 44.8708 3.52015 0.000668477 -4.44928 
687 1 13.1748 45.5449 3.52015 0.00177962 -4.44699 
688 1 11.1086 46.9335 3.52015 0.00665327 -4.44261 
689 1 12.4553 49.0094 3.52015 0.0703562 -4.41287 
278 1 9.98011 52.6613 1.76027 7.572 -4.25241 
279 1 12.0717 50.8902 1.76027 0.350507 -4.36424 
282 1 11.8043 52.8055 0.00038448 2.07251 -4.38718 
281 1 10.4882 50.5197 0.000384476 0.550359 -4.31945 
690 1 9.98011 52.6613 5.28003 7.572 -4.25241 
691 1 12.0717 50.8902 5.28003 0.350507 -4.36424 
694 1 11.8043 52.8055 3.52015 2.07251 -4.38718 
693 1 10.4882 50.5197 3.52015 0.550359 -4.31945 
284 1 10.5058 55.1027 0.000384483 1.09566 -4.25168 
285 1 12.0848 54.7163 1.76027 0.573798 -4.334 
286 1 12.4779 56.5962 0.000384482 0.0744247 -4.41419 
287 1 10.814 56.9114 1.76027 0.0518109 -4.4243 
290 1 9.09101 57.256 0.000384482 0.0276128 -4.45634 
696 1 10.5058 55.1027 3.52015 1.09566 -4.25168 
697 1 12.0848 54.7163 5.28003 0.573798 -4.334 
698 1 12.4779 56.5962 3.52015 0.0744247 -4.41419 
699 1 10.814 56.9114 5.28003 0.0518109 -4.4243 
702 1 9.09101 57.256 3.52015 0.0276128 -4.45634 
291 1 11.1295 58.6681 0.00038448 0.00640924 -4.44291 