ITEM: TIMESTEP
0
ITEM: NUMBER OF ATOMS
4
ITEM: BOX BOUNDS pp pp pp
-4.7857395923473129e-04 1.7945945573959236e+01
7.2471292890942448e-03 7.1785947870710913e+01
-7.9583219283921812e-04 7.0395868321928390e+00
ITEM: ATOMS id type x y z c_csym c_PE 
1 2 4.55298 34.8565 1.76005 0 -0.125757 
2 2 4.55298 34.8565 5.28025 0 -0.125757 
3 2 13.5262 34.8565 1.76005 0 -0.125757 
4 2 13.5262 34.8565 5.28025 0 -0.125757 
