ITEM: TIMESTEP
153
ITEM: NUMBER OF ATOMS
824
ITEM: BOX BOUNDS pp pp pp
4.3468670678980213e-03 1.7941120132932102e+01
2.7899905083175459e-02 7.8265295094916823e+01
1.0971884487898963e-03 7.0376938115512093e+00
ITEM: ATOMS id type x y z c_csym c_PE 
414 1 3.19695 1.06055 5.2793 7.40303e-08 -4.44999 
2 1 3.19695 1.06055 1.76099 7.40303e-08 -4.44999 
413 1 1.47242 1.40548 3.52015 2.69378e-07 -4.44998 
1 1 1.47241 1.40549 0.00185074 2.45378e-07 -4.44998 
415 1 3.54196 2.78609 3.52015 7.9884e-07 -4.45001 
3 1 3.54197 2.78613 0.00185074 1.07286e-06 -4.45003 
416 1 1.81741 3.13111 5.27931 1.71971e-07 -4.44999 
4 1 1.81741 3.13111 1.76099 1.71971e-07 -4.44999 
419 1 0.0929403 3.47593 3.52015 1.03023e-06 -4.44994 
7 1 0.0929183 3.47597 0.00185074 7.00717e-07 -4.44995 
526 1 3.88704 4.51149 5.27925 2.14824e-06 -4.45006 
114 1 3.88704 4.51149 1.76104 2.14824e-06 -4.45006 
420 1 2.1623 4.85681 3.52015 2.63664e-06 -4.45005 
8 1 2.16231 4.85685 0.00185074 3.70357e-06 -4.4501 
517 1 6.64623 0.370426 5.27929 2.13627e-07 -4.44999 
105 1 6.64623 0.370426 1.761 2.13627e-07 -4.44999 
516 1 4.92154 0.715547 3.52015 5.25982e-07 -4.44998 
104 1 4.92153 0.715554 0.00185074 6.0793e-07 -4.44999 
624 1 8.7162 1.75049 5.2793 6.1769e-07 -4.44997 
212 1 8.7162 1.75049 1.761 6.1769e-07 -4.44997 
518 1 6.99147 2.09565 3.52015 6.15662e-08 -4.45 
106 1 6.99147 2.09562 0.00185074 1.41316e-07 -4.44998 
521 1 5.26668 2.4409 5.27929 4.43249e-07 -4.45001 
109 1 5.26668 2.4409 1.761 4.43249e-07 -4.45001 
520 1 7.33673 3.82084 5.27932 1.56381e-06 -4.44994 
108 1 7.33673 3.82084 1.76098 1.56381e-06 -4.44994 
519 1 5.61192 4.16605 3.52015 3.4274e-07 -4.44999 
107 1 5.61196 4.16601 0.00185074 5.66897e-07 -4.44998 
423 1 0.437865 5.20169 5.27931 8.59016e-07 -4.44997 
11 1 0.437865 5.20169 1.76099 8.59016e-07 -4.44997 
527 1 4.23243 6.23658 3.52015 2.6872e-06 -4.45011 
115 1 4.23241 6.23624 0.00185074 3.01073e-06 -4.44994 
422 1 2.50722 6.58232 5.27917 1.30445e-05 -4.45021 
10 1 2.50722 6.58232 1.76113 1.30445e-05 -4.45021 
424 1 0.782396 6.92779 3.52015 1.28771e-05 -4.45004 
12 1 0.782525 6.92781 0.00185074 1.37545e-05 -4.45022 
421 1 2.85261 8.3071 3.52015 2.38768e-05 -4.45035 
9 1 2.85266 8.30627 0.00185074 1.98292e-05 -4.44992 
425 1 1.12682 8.65374 5.27891 8.8533e-05 -4.45046 
13 1 1.12682 8.65374 1.76139 8.8533e-05 -4.45046 
522 1 7.68193 5.54614 3.52015 6.14602e-06 -4.44979 
110 1 7.68192 5.54635 0.00185074 2.92334e-06 -4.44993 
525 1 5.9574 5.891 5.2793 5.91529e-06 -4.44987 
113 1 5.9574 5.891 1.761 5.91529e-06 -4.44987 
524 1 8.02678 7.27225 5.27916 7.06163e-06 -4.44983 
112 1 8.02678 7.27225 1.76114 7.06163e-06 -4.44983 
523 1 6.30304 7.61621 3.52015 3.46059e-05 -4.44971 
111 1 6.30267 7.61638 0.00185074 1.1773e-05 -4.44976 
528 1 4.57832 7.9608 5.27949 2.59555e-05 -4.44987 
116 1 4.57832 7.9608 1.76081 2.59555e-05 -4.44987 
634 1 8.37108 9.00009 3.52015 6.77542e-05 -4.45062 
222 1 8.37088 8.99876 0.00185074 5.06898e-05 -4.44986 
530 1 6.64786 9.34268 5.27939 4.8818e-05 -4.44975 
118 1 6.64786 9.34268 1.76091 4.8818e-05 -4.44975 
532 1 4.92426 9.68469 3.52015 0.000166607 -4.44948 
120 1 4.92397 9.68645 0.00185074 4.13198e-05 -4.4502 
427 1 3.19923 10.0295 5.28015 0.000162088 -4.44965 
15 1 3.19923 10.0295 1.76015 0.000162088 -4.44965 
429 1 1.47294 10.3787 3.52015 0.000266884 -4.45174 
17 1 1.47186 10.376 0.00185074 0.000252216 -4.44896 
426 1 3.5463 11.7505 3.52015 0.000867868 -4.44623 
14 1 3.54449 11.7566 0.00185074 0.000539878 -4.44793 
431 1 1.82304 12.0971 5.28418 0.00224749 -4.4473 
19 1 1.82304 12.0971 1.75612 0.00224749 -4.4473 
430 1 0.0898362 12.4457 3.52015 0.00148544 -4.44864 
18 1 0.0922477 12.4521 0.00185074 0.00267287 -4.45093 
539 1 3.89163 13.478 5.278 0.00238931 -4.4341 
127 1 3.89163 13.478 1.7623 0.00238931 -4.4341 
433 1 2.16826 13.8039 3.52015 0.00441022 -4.42868 
21 1 2.17635 13.8394 0.00185074 0.020394 -4.46358 
436 1 0.445696 14.1469 5.27887 0.0104335 -4.42695 
24 1 0.445696 14.1469 1.76143 0.0104335 -4.42695 
638 1 8.71451 10.7275 5.28003 0.000622899 -4.4519 
226 1 8.71451 10.7275 1.76027 0.000622899 -4.4519 
529 1 6.99017 11.0716 3.52015 0.00028556 -4.45027 
117 1 6.99224 11.0713 0.00185074 0.000279961 -4.44999 
533 1 5.26833 11.411 5.27924 0.000307281 -4.44717 
121 1 5.26833 11.411 1.76106 0.000307281 -4.44717 
531 1 7.32907 12.8033 5.27904 0.00522581 -4.45327 
119 1 7.32907 12.8033 1.76126 0.00522581 -4.45327 
534 1 5.60675 13.1395 3.52015 0.00110713 -4.43287 
122 1 5.6099 13.1353 0.00185074 0.00180135 -4.4301 
535 1 7.67531 14.5112 3.52015 5.86352 -4.30128 
123 1 7.66498 14.5151 0.00185074 5.78754 -4.30328 
537 1 4.23024 15.2001 3.52015 18.284 -3.87935 
125 1 4.24877 15.1921 0.00185074 16.9431 -4.02024 
435 1 2.50522 15.5299 5.25972 16.7244 -4.0238 
23 1 2.50522 15.5299 1.78058 16.7244 -4.0238 
434 1 0.79476 15.8588 3.52015 17.8042 -3.85178 
22 1 0.775818 15.8591 0.00185074 11.289 -3.99328 
25 1 2.81406 17.0992 0.00185074 79.8563 -2.88788 
538 1 5.95324 14.8806 5.27303 11.3255 -4.02999 
126 1 5.95324 14.8806 1.76726 11.3255 -4.02999 
536 1 8.069 16.1633 5.27291 27.8386 -3.48668 
124 1 8.069 16.1633 1.76739 27.8386 -3.48668 
437 1 2.89703 23.1876 3.52015 38.3165 -3.41793 
441 1 0.782477 24.4614 3.52015 17.5215 -3.69749 
541 1 4.56435 23.4914 5.28466 23.4306 -3.64454 
129 1 4.56435 23.4914 1.75564 23.4306 -3.64454 
540 1 6.22679 23.8196 3.52015 22.4628 -3.51782 
128 1 6.26943 23.8378 0.00185074 29.3123 -3.47832 
29 1 0.7584 24.4959 0.00185074 23.2227 -3.52143 
438 1 2.48216 24.8017 5.29842 11.1072 -4.14822 
26 1 2.48216 24.8017 1.74187 11.1072 -4.14822 
443 1 4.2149 25.1881 3.52015 0.0239201 -4.41686 
31 1 4.20416 25.1594 0.00185074 5.96676 -4.29885 
750 1 0.403267 26.1641 5.27427 5.89527 -4.30479 
338 1 0.403267 26.1641 1.76603 5.89527 -4.30479 
442 1 2.13603 26.5049 3.52015 0.0105219 -4.45651 
30 1 2.12949 26.5326 0.00185074 0.00718164 -4.42875 
440 1 3.86625 26.8641 5.28315 0.00397697 -4.45131 
28 1 3.86625 26.8641 1.75715 0.00397697 -4.45131 
753 1 0.0688887 27.8923 3.52015 0.000878954 -4.4505 
341 1 0.0688478 27.896 0.00185074 0.00104903 -4.45096 
439 1 1.79103 28.2356 5.27511 0.00194648 -4.45091 
27 1 1.79103 28.2356 1.76519 0.00194648 -4.45091 
444 1 3.51977 28.5804 3.52015 0.00131291 -4.45355 
32 1 3.51994 28.5876 0.00185074 0.000607218 -4.44996 
140 1 6.97112 29.2825 0.00185074 0.000303904 -4.44865 
542 1 5.95186 25.5055 5.27986 5.82496 -4.30023 
130 1 5.95186 25.5055 1.76044 5.82496 -4.30023 
546 1 7.66548 25.812 3.52015 5.7147 -4.17068 
134 1 7.66761 25.8325 0.00185074 11.7847 -4.16596 
545 1 5.60249 27.2171 3.52015 0.00509601 -4.44986 
133 1 5.59616 27.2102 0.00185074 0.00186839 -4.45375 
543 1 7.31912 27.5646 5.27758 0.00389019 -4.42968 
131 1 7.31912 27.5646 1.76271 0.00389019 -4.42968 
548 1 5.24539 28.9344 5.27975 0.000299102 -4.45007 
136 1 5.24539 28.9344 1.76054 0.000299102 -4.45007 
552 1 6.97269 29.2859 3.52015 0.000985652 -4.4466 
448 1 1.45043 29.9659 3.52015 0.0001111 -4.44972 
36 1 1.45102 29.964 0.00185074 0.000316517 -4.45161 
446 1 3.17357 30.3096 5.2783 0.000238031 -4.45065 
34 1 3.17357 30.3096 1.762 0.000238031 -4.45065 
445 1 1.10686 31.694 5.2796 6.15717e-05 -4.4496 
33 1 1.10686 31.694 1.7607 6.15717e-05 -4.4496 
450 1 2.8298 32.0377 3.52015 1.74568e-05 -4.44975 
38 1 2.82988 32.0368 0.00185074 4.67203e-05 -4.45027 
454 1 0.76149 33.42 3.52015 2.39923e-05 -4.44973 
42 1 0.761355 33.4199 0.00185074 1.97728e-05 -4.44966 
451 1 2.48557 33.7641 5.27944 7.78932e-06 -4.44981 
39 1 2.48557 33.7641 1.76086 7.78932e-06 -4.44981 
455 1 4.20968 34.1086 3.52015 3.25109e-06 -4.45001 
43 1 4.20966 34.1083 0.00185074 9.22476e-06 -4.45014 
550 1 8.69712 29.6258 5.279 0.000478262 -4.44867 
138 1 8.69712 29.6258 1.7613 0.000478262 -4.44867 
449 1 4.89854 30.6568 3.52015 0.000198253 -4.45061 
37 1 4.89902 30.6585 0.00185074 3.54839e-05 -4.44991 
549 1 6.62521 31.0051 5.2796 4.39518e-05 -4.45024 
137 1 6.62521 31.0051 1.7607 4.39518e-05 -4.45024 
553 1 8.35139 31.3514 3.52015 0.000156038 -4.44934 
141 1 8.35113 31.3501 0.00185074 8.02496e-05 -4.44989 
447 1 4.55401 32.3824 5.27911 4.26993e-05 -4.45027 
35 1 4.55401 32.3824 1.76118 4.26993e-05 -4.45027 
554 1 6.27932 32.7284 3.52015 2.79989e-05 -4.45045 
142 1 6.27953 32.7289 0.00185074 7.23936e-06 -4.45013 
551 1 8.00494 33.0747 5.27944 1.01307e-05 -4.44998 
139 1 8.00494 33.0747 1.76086 1.01307e-05 -4.44998 
763 1 0.415846 35.1449 5.27931 2.60896e-06 -4.44993 
351 1 0.415846 35.1449 1.76099 2.60896e-06 -4.44993 
456 1 2.14056 35.4898 3.52015 3.61114e-06 -4.44989 
44 1 2.14052 35.4899 0.00185074 4.08497e-06 -4.44984 
453 1 3.86496 35.8344 5.27934 8.97656e-07 -4.44994 
41 1 3.86496 35.8344 1.76096 8.97656e-07 -4.44994 
766 1 0.0704879 36.8699 3.52015 3.51749e-07 -4.45003 
354 1 0.0705056 36.8699 0.00185074 2.72544e-07 -4.45001 
452 1 1.79529 37.2151 5.27929 7.81387e-07 -4.44995 
40 1 1.79529 37.2151 1.76101 7.81387e-07 -4.44995 
457 1 3.51991 37.5601 3.52015 4.0649e-07 -4.44994 
45 1 3.5199 37.5601 0.00185074 5.41596e-07 -4.44992 
461 1 1.45009 38.9404 3.52015 1.77811e-07 -4.45001 
49 1 1.45009 38.9404 0.00185074 2.02078e-07 -4.45001 
555 1 5.93427 34.4536 5.27925 8.30242e-06 -4.45016 
143 1 5.93427 34.4536 1.76105 8.30242e-06 -4.45016 
558 1 7.65923 34.7992 3.52015 3.44215e-06 -4.45014 
146 1 7.65928 34.7995 0.00185074 1.35038e-06 -4.45001 
559 1 5.5894 36.1793 3.52015 9.91221e-07 -4.45001 
147 1 5.58937 36.1792 0.00185074 2.15963e-06 -4.45006 
556 1 7.31405 36.5245 5.27927 1.39406e-06 -4.45006 
144 1 7.31405 36.5245 1.76103 1.39406e-06 -4.45006 
561 1 5.24442 37.9049 5.27931 1.90042e-07 -4.44996 
149 1 5.24442 37.9049 1.76099 1.90042e-07 -4.44996 
565 1 6.96901 38.2499 3.52015 3.22924e-07 -4.45001 
153 1 6.969 38.2499 0.00185074 5.4318e-07 -4.45003 
563 1 8.69372 38.5952 5.27929 7.50498e-08 -4.45004 
151 1 8.69372 38.5952 1.76101 7.50498e-08 -4.45004 
459 1 3.17476 39.2855 5.27929 2.22692e-07 -4.44996 
47 1 3.17476 39.2855 1.761 2.22692e-07 -4.44996 
458 1 1.10498 40.6658 5.2793 1.97388e-07 -4.45004 
46 1 1.10498 40.6658 1.761 1.97388e-07 -4.45004 
462 1 2.82968 41.011 3.52015 4.94491e-07 -4.45001 
50 1 2.82968 41.011 0.00185074 4.98603e-07 -4.45001 
467 1 0.759824 42.391 3.52015 4.59952e-07 -4.45004 
55 1 0.759823 42.391 0.00185074 4.4762e-07 -4.45004 
464 1 2.48467 42.7365 5.2793 2.05955e-06 -4.45008 
52 1 2.48467 42.7365 1.761 2.05955e-06 -4.45008 
469 1 4.2093 43.0816 3.52015 1.52432e-06 -4.45002 
57 1 4.2093 43.0816 0.00185074 1.51934e-06 -4.45002 
463 1 4.89932 39.6304 3.52015 1.29389e-08 -4.44994 
51 1 4.89932 39.6304 0.00185074 4.04024e-09 -4.44994 
562 1 6.62391 39.9754 5.2793 2.9785e-07 -4.44997 
150 1 6.62391 39.9754 1.761 2.9785e-07 -4.44997 
567 1 8.3486 40.3205 3.52015 1.24354e-07 -4.45001 
155 1 8.3486 40.3205 0.00185074 1.47521e-07 -4.45002 
460 1 4.55423 41.3559 5.2793 1.75584e-07 -4.44995 
48 1 4.55423 41.3559 1.761 1.75584e-07 -4.44995 
566 1 6.27874 41.7008 3.52015 7.81365e-07 -4.44992 
154 1 6.27874 41.7008 0.00185074 7.42732e-07 -4.44992 
564 1 8.00338 42.0457 5.2793 8.5857e-07 -4.44996 
152 1 8.00338 42.0457 1.761 8.5857e-07 -4.44996 
568 1 5.93366 43.4264 5.2793 1.34767e-06 -4.44991 
156 1 5.93366 43.4264 1.761 1.34767e-06 -4.44991 
572 1 7.65806 43.771 3.52015 4.95296e-06 -4.44986 
160 1 7.65806 43.771 0.00185074 4.91473e-06 -4.44986 
776 1 0.414441 44.116 5.2793 2.64253e-06 -4.44995 
364 1 0.414441 44.116 1.761 2.64253e-06 -4.44995 
468 1 2.13954 44.4616 3.52015 3.70418e-06 -4.4501 
56 1 2.13954 44.4616 0.00185074 3.69025e-06 -4.4501 
466 1 3.86451 44.8074 5.2793 1.10444e-05 -4.45016 
54 1 3.86451 44.8074 1.761 1.10444e-05 -4.45016 
779 1 0.0688137 45.8407 3.52015 2.40124e-05 -4.44972 
367 1 0.0688138 45.8407 0.00185074 2.3983e-05 -4.44972 
465 1 1.79387 46.186 5.2793 8.49114e-06 -4.44994 
53 1 1.79387 46.186 1.761 8.49114e-06 -4.44994 
470 1 3.51945 46.5326 3.52015 2.55345e-05 -4.4503 
58 1 3.51945 46.5326 0.00185074 2.55263e-05 -4.4503 
474 1 1.44737 47.9098 3.52015 0.000106349 -4.44943 
62 1 1.44737 47.9098 0.00185074 0.000106331 -4.44943 
472 1 3.17319 48.256 5.2793 3.5965e-05 -4.45017 
60 1 3.17319 48.256 1.761 3.5965e-05 -4.45017 
571 1 5.58892 45.1525 3.52015 4.82872e-06 -4.45003 
159 1 5.58892 45.1525 0.00185074 4.82252e-06 -4.45003 
569 1 7.31293 45.4966 5.2793 1.01493e-05 -4.4498 
157 1 7.31293 45.4966 1.761 1.01493e-05 -4.4498 
574 1 5.24463 46.8789 5.2793 5.19835e-05 -4.4504 
162 1 5.24463 46.8789 1.761 5.19835e-05 -4.4504 
578 1 6.96864 47.2234 3.52015 1.74051e-05 -4.44997 
166 1 6.96864 47.2234 0.00185074 1.74014e-05 -4.44997 
576 1 8.69186 47.5663 5.2793 6.89837e-05 -4.44939 
164 1 8.69186 47.5663 1.761 6.89837e-05 -4.44939 
475 1 4.90019 48.6042 3.52015 0.000162389 -4.45083 
63 1 4.90019 48.6042 0.00185074 0.000162387 -4.45083 
471 1 1.1007 49.6351 5.2793 0.000419922 -4.44878 
59 1 1.1007 49.6351 1.761 0.000419922 -4.44878 
476 1 2.82504 49.9772 3.52015 0.000434166 -4.44939 
64 1 2.82504 49.9772 0.00185074 0.000434158 -4.44939 
480 1 0.756621 51.3661 3.52015 0.000667599 -4.44928 
68 1 0.756621 51.3661 0.00185074 0.000667599 -4.44928 
477 1 2.47763 51.6987 5.2793 0.00215918 -4.44733 
65 1 2.47763 51.6987 1.761 0.00215918 -4.44733 
481 1 4.20417 52.04 3.52015 0.00177807 -4.44693 
69 1 4.20417 52.04 0.00185074 0.00177807 -4.44693 
789 1 0.422586 53.1067 5.2793 0.00459857 -4.45356 
377 1 0.422586 53.1067 1.761 0.00459857 -4.45356 
482 1 2.13888 53.4281 3.52015 0.00664297 -4.44254 
70 1 2.13888 53.4281 0.00185074 0.00664297 -4.44254 
479 1 3.85138 53.7574 5.2793 0.0138363 -4.43857 
67 1 3.85138 53.7574 1.761 0.0138363 -4.43857 
575 1 6.62579 48.9514 5.2793 0.000234817 -4.45055 
163 1 6.62579 48.9514 1.761 0.000234817 -4.45055 
579 1 8.34801 49.2947 3.52015 9.02976e-05 -4.44944 
167 1 8.34801 49.2947 0.00185074 9.02976e-05 -4.44944 
473 1 4.55403 50.3252 5.2793 0.000180761 -4.45034 
61 1 4.55403 50.3252 1.761 0.000180761 -4.45034 
580 1 6.28302 50.6779 3.52015 0.000945207 -4.45097 
168 1 6.28302 50.6779 0.00185074 0.000945209 -4.45097 
577 1 8.00666 51.0277 5.2793 0.000951432 -4.45091 
165 1 8.00666 51.0277 1.761 0.000951432 -4.45091 
581 1 5.93447 52.3976 5.2793 0.00118568 -4.44963 
169 1 5.93447 52.3976 1.761 0.00118568 -4.44963 
584 1 7.66432 52.7602 3.52015 0.00555584 -4.45467 
172 1 7.66432 52.7602 0.00185074 0.00555584 -4.45467 
792 1 0.104099 54.8407 3.52015 0.0397261 -4.45449 
380 1 0.104099 54.8407 0.00185074 0.0397261 -4.45449 
478 1 1.82666 55.1896 5.2793 0.0577771 -4.42454 
66 1 1.82666 55.1896 1.761 0.0577771 -4.42454 
483 1 3.48496 55.5032 3.52015 0.0702573 -4.41274 
71 1 3.48496 55.5032 0.00185074 0.0702573 -4.41274 
487 1 1.51865 57.0129 3.52015 0.549197 -4.31985 
75 1 1.51865 57.0129 0.00185074 0.549197 -4.31985 
485 1 3.10148 57.3833 5.2793 0.349889 -4.36462 
73 1 3.10148 57.3833 1.761 0.349889 -4.36462 
585 1 5.56638 54.1091 3.52015 0.0074521 -4.44683 
173 1 5.56638 54.1091 0.00185074 0.0074521 -4.44683 
582 1 7.31367 54.4739 5.2793 0.0158142 -4.45538 
170 1 7.31367 54.4739 1.761 0.0158142 -4.45538 
587 1 5.18061 55.83 5.2793 0.0916575 -4.44546 
175 1 5.18061 55.83 1.761 0.0916575 -4.44546 
591 1 6.94696 56.1384 3.52015 0.0491587 -4.44241 
179 1 6.94696 56.1384 0.00185074 0.0491587 -4.44241 
589 1 8.77082 56.5199 5.2793 0.49082 -4.35763 
177 1 8.77082 56.5199 1.761 0.49082 -4.35763 
489 1 4.79698 57.5265 3.52015 0.483074 -4.40821 
77 1 4.79698 57.5265 0.00185074 0.483074 -4.40821 
588 1 6.65517 57.7725 5.2793 3.41796 -4.32185 
176 1 6.65517 57.7725 1.761 3.41796 -4.32185 
590 1 8.41122 58.1125 3.52015 8.38255 -4.1063 
178 1 8.41122 58.1125 0.00185074 8.38255 -4.1063 
484 1 1.01078 59.1531 5.2793 7.55673 -4.25492 
72 1 1.01078 59.1531 1.761 7.55673 -4.25492 
488 1 2.83417 59.298 3.52015 2.07204 -4.38867 
76 1 2.83417 59.298 0.00185074 2.07204 -4.38867 
491 1 3.11471 61.208 5.2793 0.574053 -4.33427 
79 1 3.11471 61.208 1.761 0.574053 -4.33427 
490 1 1.53628 61.5944 3.52015 1.0968 -4.25175 
78 1 1.53628 61.5944 0.00185074 1.0968 -4.25175 
492 1 3.50765 63.0873 3.52015 0.0743386 -4.41404 
80 1 3.50765 63.0873 0.00185074 0.0743386 -4.41404 
493 1 1.84445 63.4023 5.2793 0.0517335 -4.42427 
81 1 1.84445 63.4023 1.761 0.0517335 -4.42427 
592 1 6.34543 59.2929 3.52015 6.41611 -4.03855 
180 1 6.34543 59.2929 0.00185074 6.41611 -4.03855 
486 1 4.63118 59.2941 5.2793 1.09932 -4.42265 
74 1 4.63118 59.2941 1.761 1.09932 -4.42265 
700 1 8.46087 60.4318 3.52015 9.10746 -4.10703 
288 1 8.46087 60.4318 0.00185074 9.10746 -4.10703 
594 1 6.6819 60.7996 5.2793 3.55589 -4.31264 
182 1 6.6819 60.7996 1.761 3.55589 -4.31264 
593 1 4.81052 61.0618 3.52015 0.508239 -4.40093 
181 1 4.81052 61.0618 0.00185074 0.508239 -4.40093 
701 1 8.7866 62.0595 5.2793 0.864237 -4.33499 
289 1 8.7866 62.0595 1.761 0.864237 -4.33499 
595 1 6.97675 62.429 3.52015 0.0376858 -4.44784 
183 1 6.97675 62.429 0.00185074 0.0376857 -4.44784 
598 1 5.20614 62.7485 5.2793 0.0864077 -4.44618 
186 1 5.20614 62.7485 1.761 0.0864077 -4.44618 
496 1 0.122151 63.7468 3.52015 0.027539 -4.4564 
84 1 0.122151 63.7468 0.00185074 0.027539 -4.4564 
603 1 3.87613 64.8254 5.2793 0.0118964 -4.43926 
191 1 3.87613 64.8254 1.761 0.0118964 -4.43926 
497 1 2.15982 65.1583 3.52015 0.00639811 -4.44284 
85 1 2.15982 65.1583 0.00185074 0.0063981 -4.44284 
500 1 0.442049 65.48 5.2793 0.00317852 -4.45305 
88 1 0.442049 65.48 1.761 0.00317852 -4.45305 
604 1 4.22837 66.5408 3.52015 0.00110868 -4.4477 
192 1 4.22837 66.5408 0.00185074 0.00110868 -4.4477 
499 1 2.50041 66.8843 5.2793 0.00175342 -4.44779 
87 1 2.50041 66.8843 1.761 0.00175342 -4.44779 
501 1 0.778035 67.2187 3.52015 0.000684727 -4.44922 
89 1 0.778035 67.2187 0.00185074 0.00068472 -4.44922 
597 1 7.33566 64.1049 5.2793 0.0140467 -4.45617 
185 1 7.33566 64.1049 1.761 0.0140467 -4.45617 
596 1 5.59333 64.4681 3.52015 0.00453414 -4.44842 
184 1 5.59333 64.4681 0.00185074 0.00453414 -4.44842 
599 1 7.68533 65.8237 3.52015 0.00419661 -4.45402 
187 1 7.68533 65.8237 0.00185074 0.00419661 -4.45402 
602 1 5.9579 66.1836 5.2793 0.00112168 -4.4497 
190 1 5.9579 66.1836 1.761 0.00112168 -4.4497 
601 1 8.02791 67.5571 5.2793 0.000603028 -4.45051 
189 1 8.02791 67.5571 1.761 0.000603028 -4.45051 
600 1 6.30505 67.9054 3.52015 0.000758717 -4.45075 
188 1 6.30505 67.9054 0.00185074 0.000758714 -4.45075 
605 1 4.57689 68.2569 5.2793 0.000166474 -4.45054 
193 1 4.57689 68.2569 1.761 0.000166474 -4.45054 
498 1 2.84808 68.605 3.52015 0.000272424 -4.44971 
86 1 2.84808 68.605 0.00185074 0.000272427 -4.44971 
502 1 1.12316 68.9483 5.2793 0.000354607 -4.44891 
90 1 1.12316 68.9483 1.761 0.000354607 -4.44891 
504 1 3.19582 70.3266 5.2793 2.74685e-05 -4.45026 
92 1 3.19582 70.3266 1.761 2.74685e-05 -4.45026 
506 1 1.47001 70.673 3.52015 6.91857e-05 -4.44956 
94 1 1.47001 70.673 0.00185074 6.91968e-05 -4.44956 
503 1 3.54179 72.0505 3.52015 2.31347e-05 -4.45028 
91 1 3.54179 72.0505 0.00185074 2.3138e-05 -4.45028 
508 1 1.81636 72.3969 5.2793 5.00096e-06 -4.44999 
96 1 1.81636 72.3969 1.761 5.00096e-06 -4.44999 
507 1 0.091244 72.7424 3.52015 1.68283e-05 -4.44978 
95 1 0.091244 72.7424 0.00185074 1.68482e-05 -4.44978 
711 1 8.3699 69.2894 3.52015 8.13351e-05 -4.44934 
299 1 8.3699 69.2894 0.00185074 8.13323e-05 -4.44934 
607 1 6.64762 69.6324 5.2793 0.000154396 -4.45039 
195 1 6.64762 69.6324 1.761 0.000154396 -4.45039 
609 1 4.92242 69.9789 3.52015 0.000136371 -4.45076 
197 1 4.92242 69.9789 0.00185074 0.000136368 -4.45076 
715 1 8.71417 71.0171 5.2793 6.10736e-05 -4.44944 
303 1 8.71417 71.0171 1.761 6.10736e-05 -4.44944 
606 1 6.99071 71.3602 3.52015 1.17067e-05 -4.44992 
194 1 6.99071 71.3602 0.00185074 1.17077e-05 -4.44992 
610 1 5.26675 71.7045 5.2793 3.54906e-05 -4.45031 
198 1 5.26675 71.7045 1.761 3.54906e-05 -4.45031 
608 1 7.3352 73.0868 5.2793 9.84136e-06 -4.44981 
196 1 7.3352 73.0868 1.761 9.84136e-06 -4.44981 
616 1 3.88676 73.7759 5.2793 8.23376e-06 -4.45012 
204 1 3.88676 73.7759 1.761 8.23376e-06 -4.45012 
510 1 2.1619 74.1215 3.52015 3.84114e-06 -4.4501 
98 1 2.1619 74.1215 0.00185074 3.85033e-06 -4.4501 
513 1 0.436839 74.4671 5.2793 1.36412e-06 -4.44998 
101 1 0.436839 74.4671 1.761 1.36412e-06 -4.44998 
614 1 4.23155 75.5017 3.52015 7.57181e-07 -4.45 
202 1 4.23155 75.5017 0.00185074 7.64108e-07 -4.45 
512 1 2.50699 75.8468 5.2793 2.00462e-06 -4.45005 
100 1 2.50699 75.8468 1.761 2.00462e-06 -4.45005 
511 1 0.782192 76.1921 3.52015 6.22306e-07 -4.45003 
99 1 0.782193 76.1921 0.00185074 6.38939e-07 -4.45003 
514 1 2.85196 77.5723 3.52015 2.60958e-07 -4.45 
102 1 2.85196 77.5723 0.00185074 2.6639e-07 -4.45 
515 1 1.12735 77.9174 5.2793 6.85522e-07 -4.45001 
103 1 1.12735 77.9174 1.761 6.85522e-07 -4.45001 
611 1 5.61111 73.431 3.52015 2.6675e-06 -4.45 
199 1 5.61111 73.431 0.00185074 2.67193e-06 -4.45 
612 1 7.6804 74.8123 3.52015 4.00077e-06 -4.44989 
200 1 7.6804 74.8123 0.00185074 4.03149e-06 -4.44989 
615 1 5.95592 75.157 5.2793 1.58577e-06 -4.44991 
203 1 5.95592 75.157 1.761 1.58577e-06 -4.44991 
613 1 8.02574 76.5374 5.2793 4.16888e-07 -4.44997 
201 1 8.02574 76.5374 1.761 4.16888e-07 -4.44997 
617 1 6.30103 76.8825 3.52015 1.06651e-06 -4.44995 
205 1 6.30103 76.8825 0.00185074 1.11063e-06 -4.44995 
618 1 4.57648 77.2274 5.2793 2.6294e-07 -4.44997 
206 1 4.57648 77.2274 1.761 2.6294e-07 -4.44997 
623 1 8.371 78.2626 3.52015 1.04354e-07 -4.45 
211 1 8.371 78.2626 0.00185074 1.33936e-07 -4.45 
620 1 12.1653 1.06055 5.2793 7.40302e-08 -4.44999 
208 1 12.1653 1.06055 1.76099 7.40302e-08 -4.44999 
619 1 10.4408 1.40548 3.52015 2.69378e-07 -4.44998 
207 1 10.4408 1.40549 0.00185074 2.45378e-07 -4.44998 
621 1 12.5103 2.78609 3.52015 7.98839e-07 -4.45001 
209 1 12.5104 2.78613 0.00185074 1.07286e-06 -4.45003 
622 1 10.7858 3.13111 5.27931 1.71971e-07 -4.44999 
210 1 10.7858 3.13111 1.76099 1.71971e-07 -4.44999 
625 1 9.06133 3.47593 3.52015 1.03022e-06 -4.44994 
213 1 9.0613 3.47597 0.00185074 7.00717e-07 -4.44995 
732 1 12.8554 4.51149 5.27925 2.14824e-06 -4.45006 
320 1 12.8554 4.51149 1.76104 2.14824e-06 -4.45006 
626 1 11.1307 4.85681 3.52015 2.63664e-06 -4.45005 
214 1 11.1307 4.85685 0.00185074 3.70357e-06 -4.4501 
723 1 15.6146 0.370426 5.27929 2.13627e-07 -4.44999 
311 1 15.6146 0.370426 1.761 2.13627e-07 -4.44999 
722 1 13.8899 0.715547 3.52015 5.25982e-07 -4.44998 
310 1 13.8899 0.715554 0.00185074 6.07929e-07 -4.44999 
418 1 17.6846 1.75049 5.2793 6.17691e-07 -4.44997 
6 1 17.6846 1.75049 1.761 6.17691e-07 -4.44997 
724 1 15.9599 2.09565 3.52015 6.15664e-08 -4.45 
312 1 15.9599 2.09562 0.00185074 1.41316e-07 -4.44998 
727 1 14.2351 2.4409 5.27929 4.43248e-07 -4.45001 
315 1 14.2351 2.4409 1.761 4.43248e-07 -4.45001 
726 1 16.3051 3.82084 5.27932 1.56381e-06 -4.44994 
314 1 16.3051 3.82084 1.76098 1.56381e-06 -4.44994 
725 1 14.5803 4.16605 3.52015 3.4274e-07 -4.44999 
313 1 14.5803 4.16601 0.00185074 5.66898e-07 -4.44998 
629 1 9.40625 5.20169 5.27931 8.59016e-07 -4.44997 
217 1 9.40625 5.20169 1.76099 8.59016e-07 -4.44997 
733 1 13.2008 6.23658 3.52015 2.6872e-06 -4.45011 
321 1 13.2008 6.23624 0.00185074 3.01073e-06 -4.44994 
628 1 11.4756 6.58232 5.27917 1.30445e-05 -4.45021 
216 1 11.4756 6.58232 1.76113 1.30445e-05 -4.45021 
630 1 9.75078 6.92779 3.52015 1.28771e-05 -4.45004 
218 1 9.75091 6.92781 0.00185074 1.37545e-05 -4.45022 
627 1 11.821 8.3071 3.52015 2.38768e-05 -4.45035 
215 1 11.821 8.30627 0.00185074 1.98292e-05 -4.44992 
631 1 10.0952 8.65374 5.27891 8.8533e-05 -4.45046 
219 1 10.0952 8.65374 1.76139 8.8533e-05 -4.45046 
728 1 16.6503 5.54614 3.52015 6.14602e-06 -4.44979 
316 1 16.6503 5.54635 0.00185074 2.92334e-06 -4.44993 
731 1 14.9258 5.891 5.2793 5.9153e-06 -4.44987 
319 1 14.9258 5.891 1.761 5.91529e-06 -4.44987 
730 1 16.9952 7.27225 5.27916 7.06163e-06 -4.44983 
318 1 16.9952 7.27225 1.76114 7.06163e-06 -4.44983 
729 1 15.2714 7.61621 3.52015 3.46059e-05 -4.44971 
317 1 15.2711 7.61638 0.00185074 1.1773e-05 -4.44976 
734 1 13.5467 7.9608 5.27949 2.59555e-05 -4.44987 
322 1 13.5467 7.9608 1.76081 2.59555e-05 -4.44987 
428 1 17.3395 9.00009 3.52015 6.77542e-05 -4.45062 
16 1 17.3393 8.99876 0.00185074 5.06898e-05 -4.44986 
736 1 15.6162 9.34268 5.27939 4.8818e-05 -4.44975 
324 1 15.6162 9.34268 1.76091 4.8818e-05 -4.44975 
738 1 13.8926 9.68469 3.52015 0.000166607 -4.44948 
326 1 13.8924 9.68645 0.00185074 4.13198e-05 -4.4502 
633 1 12.1676 10.0295 5.28015 0.000162088 -4.44965 
221 1 12.1676 10.0295 1.76015 0.000162088 -4.44965 
635 1 10.4413 10.3787 3.52015 0.000266884 -4.45174 
223 1 10.4402 10.376 0.00185074 0.000252216 -4.44896 
632 1 12.5147 11.7505 3.52015 0.000867868 -4.44623 
220 1 12.5129 11.7566 0.00185074 0.000539878 -4.44793 
637 1 10.7914 12.0971 5.28418 0.00224749 -4.4473 
225 1 10.7914 12.0971 1.75612 0.00224749 -4.4473 
636 1 9.05822 12.4457 3.52015 0.00148544 -4.44864 
224 1 9.06063 12.4521 0.00185074 0.00267287 -4.45093 
745 1 12.86 13.478 5.278 0.00238931 -4.4341 
333 1 12.86 13.478 1.7623 0.00238931 -4.4341 
639 1 11.1366 13.8039 3.52015 0.00441022 -4.42868 
227 1 11.1447 13.8394 0.00185074 0.020394 -4.46358 
642 1 9.41408 14.1469 5.27887 0.0104335 -4.42695 
230 1 9.41408 14.1469 1.76143 0.0104335 -4.42695 
432 1 17.6829 10.7275 5.28003 0.000622899 -4.4519 
20 1 17.6829 10.7275 1.76027 0.000622899 -4.4519 
735 1 15.9586 11.0716 3.52015 0.00028556 -4.45027 
323 1 15.9606 11.0713 0.00185074 0.000279961 -4.44999 
739 1 14.2367 11.411 5.27924 0.000307281 -4.44717 
327 1 14.2367 11.411 1.76106 0.000307281 -4.44717 
737 1 16.2975 12.8033 5.27904 0.00522581 -4.45327 
325 1 16.2975 12.8033 1.76126 0.00522581 -4.45327 
740 1 14.5751 13.1395 3.52015 0.00110713 -4.43287 
328 1 14.5783 13.1353 0.00185074 0.00180135 -4.4301 
741 1 16.6437 14.5112 3.52015 5.86352 -4.30128 
329 1 16.6334 14.5151 0.00185074 5.78754 -4.30328 
743 1 13.1986 15.2001 3.52015 18.284 -3.87935 
331 1 13.2172 15.1921 0.00185074 16.9431 -4.02024 
641 1 11.4736 15.5299 5.25972 16.7244 -4.0238 
229 1 11.4736 15.5299 1.78058 16.7244 -4.0238 
640 1 9.76315 15.8588 3.52015 17.8042 -3.85178 
228 1 9.7442 15.8591 0.00185074 11.289 -3.99328 
231 1 11.7824 17.0992 0.00185074 79.8563 -2.88788 
744 1 14.9216 14.8806 5.27303 11.3255 -4.02999 
332 1 14.9216 14.8806 1.76726 11.3255 -4.02999 
742 1 17.0374 16.1633 5.27291 27.8386 -3.48668 
330 1 17.0374 16.1633 1.76739 27.8386 -3.48668 
643 1 11.8654 23.1876 3.52015 38.3165 -3.41793 
647 1 9.75086 24.4614 3.52015 17.5215 -3.69749 
747 1 13.5327 23.4914 5.28466 23.4306 -3.64454 
335 1 13.5327 23.4914 1.75564 23.4306 -3.64454 
746 1 15.1952 23.8196 3.52015 22.4628 -3.51782 
334 1 15.2378 23.8378 0.00185074 29.3123 -3.47832 
235 1 9.72679 24.4959 0.00185074 23.2227 -3.52143 
644 1 11.4505 24.8017 5.29842 11.1072 -4.14822 
232 1 11.4505 24.8017 1.74187 11.1072 -4.14822 
649 1 13.1833 25.1881 3.52015 0.0239201 -4.41686 
237 1 13.1725 25.1594 0.00185074 5.96676 -4.29885 
544 1 9.37165 26.1641 5.27427 5.89527 -4.30479 
132 1 9.37165 26.1641 1.76603 5.89527 -4.30479 
648 1 11.1044 26.5049 3.52015 0.0105219 -4.45651 
236 1 11.0979 26.5326 0.00185074 0.00718164 -4.42875 
646 1 12.8346 26.8641 5.28315 0.00397697 -4.45131 
234 1 12.8346 26.8641 1.75715 0.00397697 -4.45131 
547 1 9.03728 27.8923 3.52015 0.000878954 -4.4505 
135 1 9.03723 27.896 0.00185074 0.00104903 -4.45096 
645 1 10.7594 28.2356 5.27511 0.00194648 -4.45091 
233 1 10.7594 28.2356 1.76519 0.00194648 -4.45091 
650 1 12.4882 28.5804 3.52015 0.00131291 -4.45355 
238 1 12.4883 28.5876 0.00185074 0.000607218 -4.44996 
346 1 15.9395 29.2825 0.00185074 0.000303904 -4.44865 
748 1 14.9202 25.5055 5.27986 5.82496 -4.30023 
336 1 14.9202 25.5055 1.76044 5.82496 -4.30023 
752 1 16.6339 25.812 3.52015 5.7147 -4.17068 
340 1 16.636 25.8325 0.00185074 11.7847 -4.16596 
751 1 14.5709 27.2171 3.52015 0.00509601 -4.44986 
339 1 14.5646 27.2102 0.00185074 0.00186839 -4.45375 
749 1 16.2875 27.5646 5.27758 0.00389019 -4.42968 
337 1 16.2875 27.5646 1.76271 0.00389019 -4.42968 
754 1 14.2138 28.9344 5.27975 0.000299102 -4.45007 
342 1 14.2138 28.9344 1.76054 0.000299102 -4.45007 
758 1 15.9411 29.2859 3.52015 0.000985652 -4.4466 
654 1 10.4188 29.9659 3.52015 0.0001111 -4.44972 
242 1 10.4194 29.964 0.00185074 0.000316517 -4.45161 
652 1 12.142 30.3096 5.2783 0.000238031 -4.45065 
240 1 12.142 30.3096 1.762 0.000238031 -4.45065 
651 1 10.0752 31.694 5.2796 6.15717e-05 -4.4496 
239 1 10.0752 31.694 1.7607 6.15717e-05 -4.4496 
656 1 11.7982 32.0377 3.52015 1.74568e-05 -4.44975 
244 1 11.7983 32.0368 0.00185074 4.67203e-05 -4.45027 
660 1 9.72988 33.42 3.52015 2.39923e-05 -4.44973 
248 1 9.72974 33.4199 0.00185074 1.97728e-05 -4.44966 
657 1 11.454 33.7641 5.27944 7.78933e-06 -4.44981 
245 1 11.454 33.7641 1.76086 7.78933e-06 -4.44981 
661 1 13.1781 34.1086 3.52015 3.25109e-06 -4.45001 
249 1 13.178 34.1083 0.00185074 9.22476e-06 -4.45014 
756 1 17.6655 29.6258 5.279 0.000478262 -4.44867 
344 1 17.6655 29.6258 1.7613 0.000478262 -4.44867 
655 1 13.8669 30.6568 3.52015 0.000198253 -4.45061 
243 1 13.8674 30.6585 0.00185074 3.54839e-05 -4.44991 
755 1 15.5936 31.0051 5.2796 4.39518e-05 -4.45024 
343 1 15.5936 31.0051 1.7607 4.39518e-05 -4.45024 
759 1 17.3198 31.3514 3.52015 0.000156038 -4.44934 
347 1 17.3195 31.3501 0.00185074 8.02496e-05 -4.44989 
653 1 13.5224 32.3824 5.27911 4.26993e-05 -4.45027 
241 1 13.5224 32.3824 1.76118 4.26993e-05 -4.45027 
760 1 15.2477 32.7284 3.52015 2.79989e-05 -4.45045 
348 1 15.2479 32.7289 0.00185074 7.23935e-06 -4.45013 
757 1 16.9733 33.0747 5.27944 1.01307e-05 -4.44998 
345 1 16.9733 33.0747 1.76086 1.01307e-05 -4.44998 
557 1 9.38423 35.1449 5.27931 2.60896e-06 -4.44993 
145 1 9.38423 35.1449 1.76099 2.60896e-06 -4.44993 
662 1 11.1089 35.4898 3.52015 3.61114e-06 -4.44989 
250 1 11.1089 35.4899 0.00185074 4.08497e-06 -4.44984 
659 1 12.8333 35.8344 5.27934 8.97656e-07 -4.44994 
247 1 12.8333 35.8344 1.76096 8.97656e-07 -4.44994 
560 1 9.03887 36.8699 3.52015 3.51749e-07 -4.45003 
148 1 9.03889 36.8699 0.00185074 2.72544e-07 -4.45001 
658 1 10.7637 37.2151 5.27929 7.81387e-07 -4.44995 
246 1 10.7637 37.2151 1.76101 7.81387e-07 -4.44995 
663 1 12.4883 37.5601 3.52015 4.0649e-07 -4.44994 
251 1 12.4883 37.5601 0.00185074 5.41596e-07 -4.44992 
667 1 10.4185 38.9404 3.52015 1.7781e-07 -4.45001 