ITEM: TIMESTEP
0
ITEM: NUMBER OF ATOMS
4
ITEM: BOX BOUNDS pp pp pp
4.3832702970277157e-03 1.7941083729702974e+01
2.8058690266072661e-02 7.8265136309733933e+01
1.1114694365331891e-03 7.0376795305634667e+00
ITEM: ATOMS id type x y z c_csym c_PE 
1 2 4.55408 41.3343 1.76101 0 -0.126836 
2 2 4.55408 41.3343 5.27929 0 -0.126836 
3 2 13.5224 41.3343 1.76101 0 -0.126836 
4 2 13.5224 41.3343 5.27929 0 -0.126836 
