ITEM: TIMESTEP
0
ITEM: NUMBER OF ATOMS
824
ITEM: BOX BOUNDS pp pp pp
6.1200000000000002e-04 1.7944855000000000e+01
1.1609000000000000e-02 7.1781586000000004e+01
-3.6800000000000000e-04 7.0391589999999997e+00
ITEM: ATOMS id type x y z c_PE c_csym 
414 1 3.19495 1.04299 5.28003 -4.44992 1.20762e-06 
2 1 3.19495 1.04299 1.76027 -4.44992 1.20776e-06 
413 1 1.46987 1.38768 3.52015 -4.44988 6.06282e-06 
1 1 1.46987 1.38768 0.000384 -4.44988 6.06292e-06 
415 1 3.53979 2.76981 3.52015 -4.45003 4.9756e-06 
3 1 3.53979 2.76981 0.000384 -4.45003 4.9757e-06 
416 1 1.81509 3.11404 5.28003 -4.44981 1.01707e-05 
4 1 1.81509 3.11404 1.76027 -4.44981 1.01708e-05 
419 1 0.090106 3.45828 3.52015 -4.44973 2.55266e-05 
7 1 0.090106 3.45828 0.000384 -4.44973 2.55267e-05 
526 1 3.88421 4.49694 5.28003 -4.4504 5.34658e-05 
114 1 3.88421 4.49694 1.76027 -4.4504 5.34659e-05 
420 1 2.15949 4.84154 3.52015 -4.44998 1.73705e-05 
8 1 2.15949 4.84154 0.000384 -4.44998 1.73706e-05 
423 1 0.435563 5.18452 5.28003 -4.44941 6.90131e-05 
11 1 0.435563 5.18452 1.76027 -4.44941 6.90132e-05 
527 1 4.22878 6.22284 3.52015 -4.45083 0.000163008 
115 1 4.22878 6.22284 0.000384 -4.45083 0.000163008 
422 1 2.50246 6.5702 5.28003 -4.45055 0.000236686 
10 1 2.50246 6.5702 1.76027 -4.45055 0.000236686 
424 1 0.779532 6.91361 3.52015 -4.44945 9.03036e-05 
12 1 0.779532 6.91361 0.000384 -4.44945 9.03037e-05 
421 1 2.84536 8.29731 3.52015 -4.45097 0.000944995 
9 1 2.84536 8.29731 0.000384 -4.45097 0.000944995 
425 1 1.121 8.64727 5.28003 -4.4509 0.000953413 
13 1 1.121 8.64727 1.76027 -4.4509 0.000953413 
427 1 3.19403 10.0177 5.28003 -4.44963 0.00119135 
15 1 3.19403 10.0177 1.76027 -4.44963 0.00119135 
429 1 1.46347 10.3804 3.52015 -4.45461 0.00554506 
17 1 1.46347 10.3804 0.000384 -4.45461 0.00554506 
426 1 3.56226 11.7298 3.52015 -4.44686 0.00746012 
14 1 3.56226 11.7298 0.000384 -4.44686 0.00746012 
431 1 1.81425 12.0947 5.28003 -4.45531 0.0158414 
19 1 1.81425 12.0947 1.76027 -4.45532 0.0158414 
430 1 0.054694 12.4617 3.52015 -4.45441 0.039795 
18 1 0.054694 12.4617 0.000384 -4.45441 0.039795 
539 1 3.94819 13.4513 5.28003 -4.44545 0.0917895 
127 1 3.94819 13.4513 1.76027 -4.44545 0.0917895 
433 1 2.18109 13.7599 3.52015 -4.44256 0.0492078 
21 1 2.18109 13.7599 0.000384 -4.44256 0.0492078 
436 1 0.35646 14.1415 5.28003 -4.3577 0.491978 
24 1 0.35646 14.1415 1.76027 -4.3577 0.491978 
537 1 4.33199 15.1484 3.52015 -4.40833 0.483637 
125 1 4.33199 15.1484 0.000384 -4.40833 0.483637 
435 1 2.47296 15.3946 5.28003 -4.32232 3.42114 
23 1 2.47296 15.3946 1.76027 -4.32232 3.42114 
434 1 0.716157 15.7347 3.52015 -4.10702 8.39098 
22 1 0.716157 15.7347 0.000384 -4.10703 8.39098 
437 1 2.7829 16.9155 3.52015 -4.04073 6.42134 
25 1 2.7829 16.9155 0.000384 -4.04073 6.42134 
441 1 0.666716 18.0549 3.52015 -4.10736 9.11348 
29 1 0.666716 18.0549 0.000384 -4.10736 9.11348 
438 1 2.44635 18.4227 5.28003 -4.31312 3.55838 
26 1 2.44635 18.4227 1.76027 -4.31312 3.55838 
443 1 4.31851 18.685 3.52015 -4.40113 0.508598 
31 1 4.31851 18.685 0.000384 -4.40114 0.508598 
750 1 0.340746 19.6831 5.28003 -4.33517 0.863821 
338 1 0.340746 19.6831 1.76027 -4.33517 0.863821 
442 1 2.15143 20.0528 3.52015 -4.44793 0.0377454 
30 1 2.15143 20.0528 0.000384 -4.44793 0.0377454 
440 1 3.92278 20.3724 5.28003 -4.44613 0.0865006 
28 1 3.92278 20.3724 1.76027 -4.44613 0.0865006 
753 1 0.036723 21.3711 3.52015 -4.45634 0.0276065 
341 1 0.036723 21.3711 0.000384 -4.45634 0.0276065 
439 1 1.79235 21.7293 5.28003 -4.45608 0.0140503 
27 1 1.79235 21.7293 1.76027 -4.45608 0.0140503 
444 1 3.53543 22.0926 3.52015 -4.44843 0.00454814 
32 1 3.53543 22.0926 0.000384 -4.44843 0.00454814 
448 1 1.44255 23.4487 3.52015 -4.45396 0.00422914 
36 1 1.44255 23.4487 0.000384 -4.45396 0.00422914 
446 1 3.17071 23.8088 5.28003 -4.4497 0.00111851 
34 1 3.17071 23.8088 1.76027 -4.4497 0.00111851 
445 1 1.09985 25.1827 5.28003 -4.45051 0.000609409 
33 1 1.09985 25.1827 1.76027 -4.45051 0.000609409 
450 1 2.82342 25.5312 3.52015 -4.45075 0.000768399 
38 1 2.82342 25.5312 0.000384 -4.45075 0.000768399 
454 1 0.757736 26.9157 3.52015 -4.44936 8.25524e-05 
42 1 0.757736 26.9157 0.000384 -4.44936 8.25525e-05 
451 1 2.48073 27.2589 5.28003 -4.4504 0.000154119 
39 1 2.48073 27.2589 1.76027 -4.4504 0.000154119 
455 1 4.20665 27.6055 3.52015 -4.45077 0.000133677 
43 1 4.20665 27.6055 0.000384 -4.45077 0.000133678 
763 1 0.413341 28.6441 5.28003 -4.44946 6.06855e-05 
351 1 0.413341 28.6441 1.76027 -4.44946 6.06856e-05 
456 1 2.13752 28.9873 3.52015 -4.44991 1.17006e-05 
44 1 2.13752 28.9873 0.000384 -4.44991 1.17007e-05 
453 1 3.86219 29.3317 5.28003 -4.44964 3.70465e-05 
41 1 3.86219 29.3317 1.76027 -4.44964 3.70466e-05 
766 1 0.067774 30.3701 3.52015 -4.4498 1.9533e-05 
354 1 0.067774 30.3701 0.000384 -4.4498 1.95331e-05 
452 1 1.79291 30.7145 5.28003 -4.45062 9.10729e-06 
40 1 1.79291 30.7145 1.76027 -4.45062 9.10743e-06 
457 1 3.51769 31.0588 3.52015 -4.45418 3.2079e-06 
45 1 3.51769 31.0588 0.000384 -4.45419 3.208e-06 
461 1 1.44762 32.4408 3.52015 -4.45409 5.7797e-06 
49 1 1.44762 32.4408 0.000384 -4.45409 5.7798e-06 
459 1 3.17277 32.7856 5.28003 -4.49 1.4974e-06 
47 1 3.17277 32.7856 1.76027 -4.49 1.49754e-06 
458 1 1.10221 34.1666 5.28003 -4.4469 1.29564e-06 
46 1 1.10221 34.1666 1.76027 -4.4469 1.29578e-06 
462 1 2.82762 34.5119 3.52015 -4.51935 2.42344e-06 
50 1 2.82762 34.5119 0.000384 -4.51935 2.42354e-06 
467 1 0.756801 35.8923 3.52015 -4.4529 2.04238e-07 
55 1 0.756801 35.8923 0.000384 -4.4529 2.04338e-07 
464 1 2.48243 36.238 5.28003 -4.49015 3.47063e-06 
52 1 2.48243 36.238 1.76027 -4.49016 3.47077e-06 
469 1 4.20776 36.5832 3.52015 -4.51899 2.0588e-06 
57 1 4.20776 36.5832 0.000384 -4.51899 2.0589e-06 
776 1 0.411255 37.6179 5.28003 -4.45009 2.90972e-06 
364 1 0.411255 37.6179 1.76027 -4.4501 2.90986e-06 
468 1 2.13712 37.9637 3.52015 -4.45429 3.44385e-06 
56 1 2.13712 37.9637 0.000384 -4.45429 3.44395e-06 
466 1 3.86283 38.3096 5.28003 -4.44773 1.18479e-05 
54 1 3.86283 38.3096 1.76027 -4.44773 1.1848e-05 
779 1 0.065509 39.3433 3.52015 -4.44973 2.41831e-05 
367 1 0.065509 39.3433 0.000384 -4.44973 2.41832e-05 
465 1 1.7913 39.6887 5.28003 -4.4493 8.73988e-06 
53 1 1.7913 39.6887 1.76027 -4.4493 8.74002e-06 
470 1 3.51762 40.0354 3.52015 -4.44898 2.49117e-05 
58 1 3.51762 40.0354 0.000384 -4.44898 2.49118e-05 
474 1 1.44467 41.4132 3.52015 -4.44946 0.000105599 
62 1 1.44467 41.4132 0.000384 -4.44946 0.000105599 
472 1 3.17122 41.7595 5.28003 -4.45019 3.66149e-05 
60 1 3.17122 41.7595 1.76027 -4.45019 3.6615e-05 
471 1 1.09788 43.1391 5.28003 -4.44881 0.000421816 
59 1 1.09788 43.1391 1.76027 -4.44881 0.000421816 
476 1 2.82294 43.4813 3.52015 -4.44942 0.00043833 
64 1 2.82294 43.4813 0.000384 -4.44942 0.00043833 
480 1 0.753674 44.8708 3.52015 -4.44928 0.000668152 
68 1 0.753674 44.8708 0.000384 -4.44928 0.000668152 
477 1 2.4754 45.2035 5.28003 -4.44738 0.00216006 
65 1 2.4754 45.2035 1.76027 -4.44738 0.00216006 
481 1 4.20267 45.5449 3.52015 -4.44699 0.00178217 
69 1 4.20267 45.5449 0.000384 -4.44699 0.00178217 
789 1 0.419519 46.612 5.28003 -4.45352 0.00461314 
377 1 0.419519 46.612 1.76027 -4.45352 0.00461314 
482 1 2.13652 46.9335 3.52015 -4.44261 0.00666015 
70 1 2.13652 46.9335 0.000384 -4.44261 0.00666015 
479 1 3.84974 47.2629 5.28003 -4.43868 0.0138837 
67 1 3.84974 47.2629 1.76027 -4.43868 0.0138837 
792 1 0.100921 48.3467 3.52015 -4.45441 0.0397891 
380 1 0.100921 48.3467 0.000384 -4.45441 0.0397891 
478 1 1.8242 48.6957 5.28003 -4.42455 0.0578446 
66 1 1.8242 48.6957 1.76027 -4.42455 0.0578446 
483 1 3.48318 49.0094 3.52015 -4.41287 0.0703126 
71 1 3.48318 49.0094 0.000384 -4.41287 0.0703126 
487 1 1.51608 50.5197 3.52015 -4.31946 0.550343 
75 1 1.51608 50.5197 0.000384 -4.31946 0.550343 
485 1 3.09954 50.8902 5.28003 -4.36424 0.350588 
73 1 3.09954 50.8902 1.76027 -4.36424 0.350588 
484 1 1.00798 52.6613 5.28003 -4.25241 7.57256 
72 1 1.00798 52.6613 1.76027 -4.25241 7.57256 
488 1 2.83215 52.8055 3.52015 -4.38719 2.07246 
76 1 2.83215 52.8055 0.000384 -4.38719 2.07246 
491 1 3.1127 54.7163 5.28003 -4.334 0.573763 
79 1 3.1127 54.7163 1.76027 -4.334 0.573763 
490 1 1.53363 55.1027 3.52015 -4.25169 1.09549 
78 1 1.53363 55.1027 0.000384 -4.25169 1.09549 
492 1 3.50577 56.5962 3.52015 -4.4142 0.0743266 
80 1 3.50577 56.5962 0.000384 -4.4142 0.0743266 
493 1 1.84191 56.9114 5.28003 -4.4243 0.0518121 
81 1 1.84191 56.9114 1.76027 -4.4243 0.0518121 
496 1 0.118892 57.256 3.52015 -4.45633 0.027665 
84 1 0.118892 57.256 0.000384 -4.45633 0.027665 
603 1 3.87439 58.3351 5.28003 -4.43936 0.0119467 
191 1 3.87439 58.3351 1.76027 -4.43937 0.0119467 
497 1 2.15738 58.6681 3.52015 -4.44291 0.00640346 
85 1 2.15738 58.6681 0.000384 -4.44291 0.00640346 
500 1 0.438895 58.9899 5.28003 -4.45302 0.00317121 
88 1 0.438895 58.9899 1.76027 -4.45302 0.00317121 
604 1 4.22677 60.0511 3.52015 -4.44774 0.00110443 
192 1 4.22677 60.0511 0.000384 -4.44774 0.00110444 
499 1 2.49809 60.3948 5.28003 -4.44783 0.00176752 
87 1 2.49809 60.3948 1.76027 -4.44783 0.00176752 
501 1 0.774994 60.7292 3.52015 -4.44923 0.000682317 
89 1 0.774994 60.7292 0.000384 -4.44923 0.000682317 
498 1 2.84587 62.1161 3.52015 -4.44973 0.000277477 
86 1 2.84587 62.1161 0.000384 -4.44973 0.000277477 
502 1 1.12024 62.4595 5.28003 -4.44894 0.000359064 
90 1 1.12024 62.4595 1.76027 -4.44894 0.000359064 
504 1 3.19374 63.8383 5.28003 -4.45027 2.84405e-05 
92 1 3.19374 63.8383 1.76027 -4.45027 2.84406e-05 
506 1 1.46721 64.1849 3.52015 -4.44957 7.00509e-05 
94 1 1.46721 64.1849 0.000384 -4.44957 7.0051e-05 
503 1 3.53985 65.5629 3.52015 -4.45029 2.20681e-05 
91 1 3.53985 65.5629 0.000384 -4.4503 2.20682e-05 
508 1 1.81368 65.9094 5.28003 -4.45 4.74064e-06 
96 1 1.81368 65.9094 1.76027 -4.45 4.74078e-06 
507 1 0.087841 66.255 3.52015 -4.4498 1.71823e-05 
95 1 0.087841 66.255 0.000384 -4.44981 1.71824e-05 
616 1 3.88497 67.2889 5.28003 -4.45012 8.1513e-06 
204 1 3.88497 67.2889 1.76027 -4.45012 8.15144e-06 
510 1 2.15936 67.6346 3.52015 -4.45011 3.67091e-06 
98 1 2.15936 67.6346 0.000384 -4.45011 3.67101e-06 
513 1 0.433545 67.9804 5.28003 -4.45002 1.3065e-06 
101 1 0.433545 67.9804 1.76027 -4.45002 1.30664e-06 
614 1 4.22992 69.0153 3.52015 -4.44999 1.4319e-06 
202 1 4.22992 69.0153 0.000384 -4.44999 1.432e-06 
512 1 2.50463 69.3605 5.28003 -4.45005 2.3413e-06 
100 1 2.50463 69.3605 1.76027 -4.45005 2.34144e-06 
511 1 0.779046 69.706 3.52015 -4.45005 4.03718e-07 
99 1 0.779046 69.706 0.000384 -4.45005 4.03818e-07 
514 1 2.84982 71.0866 3.52015 -4.44996 1.90817e-06 
102 1 2.84982 71.0866 0.000384 -4.44996 1.90827e-06 
515 1 1.12445 71.4318 5.28003 -4.44999 1.53123e-06 
103 1 1.12445 71.4318 1.76027 -4.44999 1.53137e-06 
517 1 6.6453 0.352984 5.28003 -4.45007 3.48055e-06 
105 1 6.6453 0.352984 1.76027 -4.45007 3.48069e-06 
516 1 4.91998 0.69823 3.52015 -4.45001 2.20153e-06 
104 1 4.91998 0.69823 0.000384 -4.45001 2.20163e-06 
624 1 8.71648 1.73288 5.28003 -4.44998 3.06287e-06 
212 1 8.71648 1.73288 1.76027 -4.44998 3.06301e-06 
518 1 6.99062 2.07873 3.52015 -4.45012 3.57598e-06 
106 1 6.99062 2.07873 0.000384 -4.45012 3.57608e-06 
521 1 5.26491 2.42466 5.28003 -4.45016 1.24035e-05 
109 1 5.26491 2.42466 1.76027 -4.45016 1.24037e-05 
520 1 7.33643 3.80375 5.28003 -4.44996 8.5532e-06 
108 1 7.33643 3.80375 1.76027 -4.44996 8.55334e-06 
519 1 5.61011 4.15046 3.52015 -4.45031 2.59802e-05 
107 1 5.61011 4.15046 0.000384 -4.45031 2.59803e-05 
522 1 7.68306 5.52819 3.52015 -4.44945 0.00010778 
110 1 7.68306 5.52819 0.000384 -4.44945 0.00010778 
525 1 5.95652 5.87452 5.28003 -4.45019 3.57262e-05 
113 1 5.95652 5.87452 1.76027 -4.45019 3.57263e-05 
524 1 8.02985 7.25409 5.28003 -4.4488 0.000421648 
112 1 8.02985 7.25409 1.76027 -4.44881 0.000421648 
523 1 6.30479 7.59635 3.52015 -4.44942 0.000435523 
111 1 6.30479 7.59635 0.000384 -4.44942 0.000435523 
528 1 4.57507 7.94446 5.28003 -4.45036 0.00018108 
116 1 4.57507 7.94446 1.76027 -4.45036 0.00018108 
634 1 8.37406 8.98579 3.52015 -4.44928 0.000668468 
222 1 8.37406 8.98579 0.000384 -4.44928 0.000668468 
530 1 6.65233 9.31851 5.28003 -4.44738 0.00216301 
118 1 6.65233 9.31851 1.76027 -4.44738 0.00216301 
532 1 4.92507 9.65992 3.52015 -4.44698 0.00177863 
120 1 4.92507 9.65992 0.000384 -4.44698 0.00177863 
638 1 8.70822 10.727 5.28003 -4.45352 0.00461255 
226 1 8.70822 10.727 1.76027 -4.45352 0.00461255 
529 1 6.99121 11.0485 3.52015 -4.44261 0.00666024 
117 1 6.99121 11.0485 0.000384 -4.44261 0.00666024 
533 1 5.27799 11.3779 5.28003 -4.43868 0.0138866 
121 1 5.27799 11.3779 1.76027 -4.43868 0.0138866 
531 1 7.30354 12.8107 5.28003 -4.42455 0.0578424 
119 1 7.30354 12.8107 1.76027 -4.42455 0.0578424 
534 1 5.64455 13.1244 3.52015 -4.41287 0.0703103 
122 1 5.64455 13.1244 0.000384 -4.41287 0.0703103 
535 1 7.61165 14.6347 3.52015 -4.31945 0.550386 
123 1 7.61165 14.6347 0.000384 -4.31945 0.550386 
538 1 6.0282 15.0052 5.28003 -4.36423 0.350625 
126 1 6.0282 15.0052 1.76027 -4.36423 0.350625 
536 1 8.11975 16.7763 5.28003 -4.25242 7.57204 
124 1 8.11975 16.7763 1.76027 -4.25241 7.57204 
541 1 4.49784 16.9167 5.28003 -4.42269 1.09984 
129 1 4.49784 16.9167 1.76027 -4.42269 1.09984 
540 1 6.29558 16.9206 3.52015 -4.38719 2.07254 
128 1 6.29558 16.9206 0.000384 -4.38719 2.07254 
542 1 6.01503 18.8313 5.28003 -4.334 0.573733 
130 1 6.01503 18.8313 1.76027 -4.334 0.573733 
546 1 7.5941 19.2177 3.52015 -4.25169 1.09549 
134 1 7.5941 19.2177 0.000384 -4.25169 1.09549 
545 1 5.62196 20.7113 3.52015 -4.41419 0.0744865 
133 1 5.62196 20.7113 0.000384 -4.41419 0.0744865 
543 1 7.28582 21.0264 5.28003 -4.42429 0.0518371 
131 1 7.28582 21.0264 1.76027 -4.42429 0.0518371 
548 1 5.25335 22.4501 5.28003 -4.43937 0.0119168 
136 1 5.25335 22.4501 1.76027 -4.43938 0.0119168 
552 1 6.97036 22.7831 3.52015 -4.4429 0.0063901 
140 1 6.97036 22.7831 0.000384 -4.4429 0.0063901 
550 1 8.68884 23.1049 5.28003 -4.45301 0.00318051 
138 1 8.68884 23.1049 1.76027 -4.45301 0.00318051 
449 1 4.90097 24.1662 3.52015 -4.44774 0.00111971 
37 1 4.90097 24.1662 0.000384 -4.44774 0.00111971 
549 1 6.62965 24.5098 5.28003 -4.44783 0.00176439 
137 1 6.62965 24.5098 1.76027 -4.44783 0.00176439 
553 1 8.35274 24.8442 3.52015 -4.44924 0.000681757 
141 1 8.35274 24.8442 0.000384 -4.44924 0.000681757 
447 1 4.55232 25.8828 5.28003 -4.45055 0.000169591 
35 1 4.55232 25.8828 1.76027 -4.45055 0.000169591 
554 1 6.28186 26.2311 3.52015 -4.44973 0.000275366 
142 1 6.28186 26.2311 0.000384 -4.44973 0.000275366 
551 1 8.00749 26.5745 5.28003 -4.44894 0.00035865 
139 1 8.00749 26.5745 1.76027 -4.44894 0.000358651 
555 1 5.93399 27.9533 5.28003 -4.45027 2.78773e-05 
143 1 5.93399 27.9533 1.76027 -4.45027 2.78774e-05 
558 1 7.66053 28.2999 3.52015 -4.44958 7.06974e-05 
146 1 7.66053 28.2999 0.000384 -4.44958 7.06975e-05 
559 1 5.58788 29.6779 3.52015 -4.44896 2.20202e-05 
147 1 5.58788 29.6779 0.000384 -4.44896 2.20203e-05 
556 1 7.31405 30.0244 5.28003 -4.44934 4.4056e-06 
144 1 7.31405 30.0244 1.76027 -4.44934 4.40574e-06 
561 1 5.24276 31.4039 5.28003 -4.44769 8.6239e-06 
149 1 5.24276 31.4039 1.76027 -4.44769 8.62404e-06 
565 1 6.96837 31.7496 3.52015 -4.45429 3.9842e-06 
153 1 6.96837 31.7496 0.000384 -4.45429 3.9843e-06 
563 1 8.69419 32.0955 5.28003 -4.45012 2.0997e-06 
151 1 8.69419 32.0955 1.76027 -4.45012 2.09984e-06 
463 1 4.89781 33.1303 3.52015 -4.51895 1.6451e-06 
51 1 4.89781 33.1303 0.000384 -4.51895 1.6452e-06 
562 1 6.6231 33.4755 5.28003 -4.49013 2.8482e-06 
150 1 6.6231 33.4755 1.76027 -4.49013 2.84834e-06 
567 1 8.34869 33.821 3.52015 -4.45289 4.518e-07 
155 1 8.34869 33.821 0.000384 -4.45289 4.519e-07 
460 2 4.55278 34.8568 5.28003 -2.75929 5.2904e-08 
48 2 4.55278 34.8568 1.76027 -2.7593 5.3044e-08 
566 1 6.27791 35.2016 3.52015 -4.51936 2.0913e-06 
154 1 6.27791 35.2016 0.000384 -4.51936 2.0914e-06 
564 1 8.00329 35.5468 5.28003 -4.44689 1.6359e-06 
152 1 8.00329 35.5468 1.76027 -4.4469 1.63604e-06 
568 1 5.93279 36.928 5.28003 -4.48999 1.0159e-06 
156 1 5.93279 36.928 1.76027 -4.48999 1.01604e-06 
572 1 7.65787 37.2727 3.52015 -4.45406 5.7267e-06 
160 1 7.65787 37.2727 0.000384 -4.45407 5.7268e-06 
571 1 5.58795 38.6548 3.52015 -4.45421 5.3258e-06 
159 1 5.58795 38.6548 0.000384 -4.45421 5.3259e-06 
569 1 7.31265 38.999 5.28003 -4.45059 1.05993e-05 
157 1 7.31265 38.999 1.76027 -4.45059 1.05994e-05 
574 1 5.24353 40.3819 5.28003 -4.44974 5.33311e-05 
162 1 5.24353 40.3819 1.76027 -4.44974 5.33312e-05 
578 1 6.96825 40.7265 3.52015 -4.44998 1.72117e-05 
166 1 6.96825 40.7265 0.000384 -4.44998 1.72118e-05 
576 1 8.69217 41.0695 5.28003 -4.44942 6.96734e-05 
164 1 8.69217 41.0695 1.76027 -4.44942 6.96735e-05 
475 1 4.89895 42.1078 3.52015 -4.45083 0.000163109 
63 1 4.89895 42.1078 0.000384 -4.45083 0.000163109 
575 1 6.62527 42.4552 5.28003 -4.45055 0.000239487 
163 1 6.62527 42.4552 1.76027 -4.45055 0.000239488 
579 1 8.3482 42.7986 3.52015 -4.44945 9.04449e-05 
167 1 8.3482 42.7986 0.000384 -4.44945 9.0445e-05 
473 1 4.55266 43.8294 5.28003 -4.45036 0.000181233 
61 1 4.55266 43.8294 1.76027 -4.45036 0.000181233 
580 1 6.28238 44.1823 3.52015 -4.45096 0.000945581 
168 1 6.28238 44.1823 0.000384 -4.45096 0.000945581 
577 1 8.00674 44.5323 5.28003 -4.4509 0.000957454 
165 1 8.00674 44.5323 1.76027 -4.4509 0.000957454 
581 1 5.9337 45.9027 5.28003 -4.44963 0.00118917 
169 1 5.9337 45.9027 1.76027 -4.44963 0.00118917 
584 1 7.66427 46.2654 3.52015 -4.45461 0.00554176 
172 1 7.66427 46.2654 0.000384 -4.45461 0.00554176 
585 1 5.56547 47.6148 3.52015 -4.44686 0.00746336 
173 1 5.56547 47.6148 0.000384 -4.44686 0.00746337 
582 1 7.31349 47.9797 5.28003 -4.45531 0.0158439 
170 1 7.31349 47.9797 1.76027 -4.45531 0.0158439 
587 1 5.17955 49.3363 5.28003 -4.44545 0.0917836 
175 1 5.17955 49.3363 1.76027 -4.44545 0.0917836 
591 1 6.94665 49.6449 3.52015 -4.44256 0.0492064 
179 1 6.94665 49.6449 0.000384 -4.44256 0.0492064 
589 1 8.77128 50.0265 5.28003 -4.3577 0.491961 
177 1 8.77128 50.0265 1.76027 -4.35771 0.491961 
489 1 4.79574 51.0334 3.52015 -4.40833 0.483586 
77 1 4.79574 51.0334 0.000384 -4.40834 0.483586 
588 1 6.65478 51.2796 5.28003 -4.32232 3.42114 
176 1 6.65478 51.2796 1.76027 -4.32232 3.42114 
590 1 8.41158 51.6197 3.52015 -4.10703 8.39095 
178 1 8.41158 51.6197 0.000384 -4.10703 8.39095 
592 1 6.34483 52.8005 3.52015 -4.04073 6.42144 
180 1 6.34483 52.8005 0.000384 -4.04074 6.42144 
486 1 4.62989 52.8017 5.28003 -4.42269 1.09988 
74 1 4.62989 52.8017 1.76027 -4.42269 1.09988 
700 1 8.46102 53.9399 3.52015 -4.10737 9.11331 
288 1 8.46102 53.9399 0.000384 -4.10737 9.11331 
594 1 6.68139 54.3077 5.28003 -4.31312 3.55838 
182 1 6.68139 54.3077 1.76027 -4.31313 3.55838 
593 1 4.80923 54.57 3.52015 -4.40111 0.508597 
181 1 4.80923 54.57 0.000384 -4.40111 0.508597 
701 1 8.78699 55.5681 5.28003 -4.33514 0.863959 
289 1 8.78699 55.5681 1.76027 -4.33514 0.863959 
595 1 6.97631 55.9378 3.52015 -4.44791 0.037734 
183 1 6.97631 55.9378 0.000384 -4.44791 0.037734 
598 1 5.20496 56.2574 5.28003 -4.44614 0.0865265 
186 1 5.20496 56.2574 1.76027 -4.44614 0.0865265 
597 1 7.33539 57.6142 5.28003 -4.45608 0.014094 
185 1 7.33539 57.6142 1.76027 -4.45608 0.014094 
596 1 5.5923 57.9776 3.52015 -4.44842 0.00455237 
184 1 5.5923 57.9776 0.000384 -4.44842 0.00455237 
599 1 7.68519 59.3337 3.52015 -4.45397 0.00421308 
187 1 7.68519 59.3337 0.000384 -4.45397 0.00421308 
602 1 5.95702 59.6937 5.28003 -4.4497 0.00112675 
190 1 5.95702 59.6937 1.76027 -4.4497 0.00112675 
601 1 8.02789 61.0677 5.28003 -4.45051 0.000605453 
189 1 8.02789 61.0677 1.76027 -4.45051 0.000605453 
600 1 6.30431 61.4162 3.52015 -4.45075 0.000762976 
188 1 6.30431 61.4162 0.000384 -4.45075 0.000762977 
605 1 4.57542 61.7678 5.28003 -4.45055 0.000165556 
193 1 4.57542 61.7678 1.76027 -4.45055 0.000165556 
711 1 8.37 62.8007 3.52015 -4.44936 8.17121e-05 
299 1 8.37 62.8007 0.000384 -4.44936 8.17122e-05 
607 1 6.64701 63.1439 5.28003 -4.45039 0.000152796 
195 1 6.64701 63.1439 1.76027 -4.45039 0.000152797 
609 1 4.92109 63.4904 3.52015 -4.45076 0.000139976 
197 1 4.92109 63.4904 0.000384 -4.45076 0.000139977 
715 1 8.7144 64.5291 5.28003 -4.44944 6.1423e-05 
303 1 8.7144 64.5291 1.76027 -4.44945 6.14231e-05 
606 1 6.99022 64.8723 3.52015 -4.44991 1.13344e-05 
194 1 6.99022 64.8723 0.000384 -4.44991 1.13345e-05 
610 1 5.26555 65.2167 5.28003 -4.45032 3.67803e-05 
198 1 5.26555 65.2167 1.76027 -4.45032 3.67804e-05 
608 1 7.33483 66.5995 5.28003 -4.44982 9.3575e-06 
196 1 7.33483 66.5995 1.76027 -4.44983 9.35764e-06 
611 1 5.61005 66.9438 3.52015 -4.44999 3.3613e-06 
199 1 5.61005 66.9438 0.000384 -4.44999 3.3614e-06 
612 1 7.68012 68.3258 3.52015 -4.44992 6.1448e-06 
200 1 7.68012 68.3258 0.000384 -4.44992 6.1449e-06 
615 1 5.95497 68.6705 5.28003 -4.44992 9.51904e-07 
203 1 5.95497 68.6705 1.76027 -4.44992 9.52044e-07 
613 1 8.02553 70.0516 5.28003 -4.45002 1.40992e-06 
201 1 8.02553 70.0516 1.76027 -4.45002 1.41006e-06 
617 1 6.30012 70.3969 3.52015 -4.44997 2.74349e-06 
205 1 6.30012 70.3969 0.000384 -4.44997 2.74359e-06 
618 1 4.57496 70.7417 5.28003 -4.44995 5.2812e-08 
206 1 4.57496 70.7417 1.76027 -4.44995 5.2952e-08 
623 1 8.37094 71.7773 3.52015 -4.45006 2.06338e-07 
211 1 8.37094 71.7773 0.000384 -4.45007 2.06438e-07 
620 1 12.1671 1.04299 5.28003 -4.44992 1.43032e-06 
208 1 12.1671 1.04299 1.76027 -4.44992 1.43046e-06 
619 1 10.442 1.38768 3.52015 -4.44989 6.1739e-06 
207 1 10.442 1.38768 0.000384 -4.44989 6.174e-06 
621 1 12.5119 2.76981 3.52015 -4.45003 4.9079e-06 
209 1 12.5119 2.76981 0.000384 -4.45003 4.908e-06 
622 1 10.7872 3.11404 5.28003 -4.44981 1.01542e-05 
210 1 10.7872 3.11404 1.76027 -4.44981 1.01543e-05 
625 1 9.06223 3.45828 3.52015 -4.44974 2.56008e-05 
213 1 9.06223 3.45828 0.000384 -4.44974 2.56009e-05 
732 1 12.8563 4.49694 5.28003 -4.45039 5.35574e-05 
320 1 12.8563 4.49694 1.76027 -4.45039 5.35575e-05 
626 1 11.1316 4.84154 3.52015 -4.44998 1.71928e-05 
214 1 11.1316 4.84154 0.000384 -4.44998 1.71929e-05 
629 1 9.40769 5.18452 5.28003 -4.44941 6.93816e-05 
217 1 9.40769 5.18452 1.76027 -4.44941 6.93817e-05 
733 1 13.2009 6.22284 3.52015 -4.45082 0.000162532 
321 1 13.2009 6.22284 0.000384 -4.45082 0.000162532 
628 1 11.4746 6.5702 5.28003 -4.45055 0.000235824 
216 1 11.4746 6.5702 1.76027 -4.45055 0.000235824 
630 1 9.75165 6.91361 3.52015 -4.44945 9.02325e-05 
218 1 9.75165 6.91361 0.000384 -4.44945 9.02326e-05 
627 1 11.8175 8.29731 3.52015 -4.45097 0.000943646 
215 1 11.8175 8.29731 0.000384 -4.45097 0.000943646 
631 1 10.0931 8.64727 5.28003 -4.4509 0.000955058 
219 1 10.0931 8.64727 1.76027 -4.4509 0.000955058 
633 1 12.1662 10.0177 5.28003 -4.44963 0.00118355 
221 1 12.1662 10.0177 1.76027 -4.44963 0.00118355 
635 1 10.4356 10.3804 3.52015 -4.45461 0.00554406 
223 1 10.4356 10.3804 0.000384 -4.45462 0.00554406 
632 1 12.5344 11.7298 3.52015 -4.44686 0.00746418 
220 1 12.5344 11.7298 0.000384 -4.44686 0.00746418 
637 1 10.7864 12.0947 5.28003 -4.45531 0.0158377 
225 1 10.7864 12.0947 1.76027 -4.45531 0.0158377 
636 1 9.02682 12.4617 3.52015 -4.45441 0.0397925 
224 1 9.02682 12.4617 0.000384 -4.45441 0.0397925 
745 1 12.9203 13.4513 5.28003 -4.44545 0.091766 
333 1 12.9203 13.4513 1.76027 -4.44545 0.091766 
639 1 11.1532 13.7599 3.52015 -4.44256 0.0491781 
227 1 11.1532 13.7599 0.000384 -4.44256 0.0491781 
642 1 9.32858 14.1415 5.28003 -4.35771 0.491962 
230 1 9.32858 14.1415 1.76027 -4.35771 0.491963 
743 1 13.3041 15.1484 3.52015 -4.40833 0.483562 
331 1 13.3041 15.1484 0.000384 -4.40833 0.483562 
641 1 11.4451 15.3946 5.28003 -4.32232 3.42105 
229 1 11.4451 15.3946 1.76027 -4.32232 3.42105 
640 1 9.68828 15.7347 3.52015 -4.10703 8.39093 
228 1 9.68828 15.7347 0.000384 -4.10703 8.39093 
643 1 11.755 16.9155 3.52015 -4.04072 6.421 
231 1 11.755 16.9155 0.000384 -4.04072 6.421 
647 1 9.63884 18.0549 3.52015 -4.10735 9.11373 
235 1 9.63884 18.0549 0.000384 -4.10735 9.11373 
644 1 11.4185 18.4227 5.28003 -4.31311 3.55823 
232 1 11.4185 18.4227 1.76027 -4.31311 3.55823 
649 1 13.2906 18.685 3.52015 -4.40116 0.508344 
237 1 13.2906 18.685 0.000384 -4.40116 0.508344 
544 1 9.31287 19.6831 5.28003 -4.33516 0.863852 
132 1 9.31287 19.6831 1.76027 -4.33516 0.863852 
648 1 11.1236 20.0528 3.52015 -4.44793 0.0377661 
236 1 11.1236 20.0528 0.000384 -4.44794 0.0377661 
646 1 12.8949 20.3724 5.28003 -4.44613 0.0864575 
234 1 12.8949 20.3724 1.76027 -4.44613 0.0864575 
547 1 9.00884 21.3711 3.52015 -4.45634 0.0276234 
135 1 9.00884 21.3711 0.000384 -4.45634 0.0276234 
645 1 10.7645 21.7293 5.28003 -4.45608 0.0140537 
233 1 10.7645 21.7293 1.76027 -4.45608 0.0140537 
650 1 12.5076 22.0926 3.52015 -4.44843 0.00454255 
238 1 12.5076 22.0926 0.000384 -4.44843 0.00454255 
654 1 10.4147 23.4487 3.52015 -4.45396 0.00423021 
242 1 10.4147 23.4487 0.000384 -4.45396 0.00423021 
652 1 12.1428 23.8088 5.28003 -4.44969 0.00112743 
240 1 12.1428 23.8088 1.76027 -4.44969 0.00112743 
651 1 10.072 25.1827 5.28003 -4.4505 0.000606686 
239 1 10.072 25.1827 1.76027 -4.4505 0.000606686 
656 1 11.7955 25.5312 3.52015 -4.45074 0.000772822 
244 1 11.7955 25.5312 0.000384 -4.45074 0.000772822 
660 1 9.72986 26.9157 3.52015 -4.44935 8.17655e-05 
248 1 9.72986 26.9157 0.000384 -4.44935 8.17656e-05 
657 1 11.4528 27.2589 5.28003 -4.4504 0.000156335 
245 1 11.4528 27.2589 1.76027 -4.4504 0.000156335 
661 1 13.1788 27.6055 3.52015 -4.45078 0.00013196 
249 1 13.1788 27.6055 0.000384 -4.45078 0.00013196 
557 1 9.38546 28.6441 5.28003 -4.44945 6.11392e-05 
145 1 9.38546 28.6441 1.76027 -4.44945 6.11393e-05 
662 1 11.1096 28.9873 3.52015 -4.44991 1.17788e-05 
250 1 11.1096 28.9873 0.000384 -4.44991 1.17789e-05 
659 1 12.8343 29.3317 5.28003 -4.44965 3.688e-05 
247 1 12.8343 29.3317 1.76027 -4.44965 3.68801e-05 
560 1 9.0399 30.3701 3.52015 -4.4498 1.99438e-05 
148 1 9.0399 30.3701 0.000384 -4.4498 1.99439e-05 
658 1 10.765 30.7145 5.28003 -4.45061 8.9397e-06 
246 1 10.765 30.7145 1.76027 -4.45061 8.93984e-06 
663 1 12.4898 31.0588 3.52015 -4.45419 3.19e-06 
251 1 12.4898 31.0588 0.000384 -4.45419 3.1901e-06 
667 1 10.4197 32.4408 3.52015 -4.45409 5.4803e-06 
255 1 10.4197 32.4408 0.000384 -4.45409 5.4804e-06 
665 1 12.1449 32.7856 5.28003 -4.49 1.65e-06 
253 1 12.1449 32.7856 1.76027 -4.49001 1.65014e-06 
664 1 10.0743 34.1666 5.28003 -4.44689 1.2232e-06 
252 1 10.0743 34.1666 1.76027 -4.44689 1.22334e-06 
668 1 11.7997 34.5119 3.52015 -4.51934 2.3564e-06 
256 1 11.7997 34.5119 0.000384 -4.51934 2.3565e-06 
673 1 9.72892 35.8923 3.52015 -4.4529 2.416e-07 
261 1 9.72892 35.8923 0.000384 -4.4529 2.417e-07 
670 1 11.4546 36.238 5.28003 -4.49017 3.8752e-06 
258 1 11.4546 36.238 1.76027 -4.49017 3.87534e-06 
675 1 13.1799 36.5832 3.52015 -4.51899 2.18e-06 
263 1 13.1799 36.5832 0.000384 -4.51899 2.1801e-06 
570 1 9.38338 37.6179 5.28003 -4.45009 2.8554e-06 
158 1 9.38338 37.6179 1.76027 -4.45009 2.85554e-06 
674 1 11.1092 37.9637 3.52015 -4.45429 3.0261e-06 
262 1 11.1092 37.9637 0.000384 -4.45429 3.0262e-06 
672 1 12.835 38.3096 5.28003 -4.44773 1.272e-05 
260 1 12.835 38.3096 1.76027 -4.44773 1.27201e-05 
573 1 9.03763 39.3433 3.52015 -4.44973 2.37106e-05 
161 1 9.03763 39.3433 0.000384 -4.44973 2.37107e-05 
671 1 10.7634 39.6887 5.28003 -4.44929 8.7631e-06 
259 1 10.7634 39.6887 1.76027 -4.44929 8.76324e-06 
676 1 12.4897 40.0354 3.52015 -4.44899 2.385e-05 
264 1 12.4897 40.0354 0.000384 -4.44899 2.38501e-05 
680 1 10.4168 41.4132 3.52015 -4.44945 0.000104761 
268 1 10.4168 41.4132 0.000384 -4.44945 0.000104761 
678 1 12.1433 41.7595 5.28003 -4.45019 3.662e-05 
266 1 12.1433 41.7595 1.76027 -4.45019 3.66201e-05 
677 1 10.07 43.1391 5.28003 -4.44881 0.000421271 
265 1 10.07 43.1391 1.76027 -4.44881 0.000421271 
682 1 11.7951 43.4813 3.52015 -4.44942 0.00043608 
270 1 11.7951 43.4813 0.000384 -4.44942 0.00043608 
686 1 9.7258 44.8708 3.52015 -4.44928 0.000666995 
274 1 9.7258 44.8708 0.000384 -4.44928 0.000666995 
683 1 11.4475 45.2035 5.28003 -4.44738 0.0021648 
271 1 11.4475 45.2035 1.76027 -4.44738 0.0021648 
687 1 13.1748 45.5449 3.52015 -4.44699 0.00177817 
275 1 13.1748 45.5449 0.000384 -4.44699 0.00177817 
583 1 9.39164 46.612 5.28003 -4.45351 0.00461343 
171 1 9.39164 46.612 1.76027 -4.45351 0.00461343 
688 1 11.1086 46.9335 3.52015 -4.44261 0.00666183 
276 1 11.1086 46.9335 0.000384 -4.44261 0.00666183 
685 1 12.8219 47.2629 5.28003 -4.43869 0.0138787 
273 1 12.8219 47.2629 1.76027 -4.43869 0.0138787 
586 1 9.07304 48.3467 3.52015 -4.4544 0.0398019 
174 1 9.07304 48.3467 0.000384 -4.4544 0.0398019 
684 1 10.7963 48.6957 5.28003 -4.42454 0.0578138 
272 1 10.7963 48.6957 1.76027 -4.42455 0.0578138 
689 1 12.4553 49.0094 3.52015 -4.41288 0.0703109 
277 1 12.4553 49.0094 0.000384 -4.41289 0.0703109 
693 1 10.4882 50.5197 3.52015 -4.31946 0.550329 
281 1 10.4882 50.5197 0.000384 -4.31946 0.550329 
691 1 12.0717 50.8902 5.28003 -4.36425 0.350492 
279 1 12.0717 50.8902 1.76027 -4.36425 0.350492 
690 1 9.9801 52.6613 5.28003 -4.25241 7.57249 
278 1 9.9801 52.6613 1.76027 -4.25241 7.57249 
694 1 11.8043 52.8055 3.52015 -4.3872 2.07227 
282 1 11.8043 52.8055 0.000384 -4.38719 2.07227 
697 1 12.0848 54.7163 5.28003 -4.33397 0.573816 
285 1 12.0848 54.7163 1.76027 -4.33397 0.573816 
696 1 10.5058 55.1027 3.52015 -4.25168 1.09568 
284 1 10.5058 55.1027 0.000384 -4.25168 1.09568 
698 1 12.4779 56.5962 3.52015 -4.4142 0.0743359 
286 1 12.4779 56.5962 0.000384 -4.4142 0.0743359 
699 1 10.814 56.9114 5.28003 -4.4243 0.051788 
287 1 10.814 56.9114 1.76027 -4.4243 0.051788 
702 1 9.09101 57.256 3.52015 -4.45633 0.0276637 
290 1 9.09101 57.256 0.000384 -4.45633 0.0276637 
809 1 12.8465 58.3351 5.28003 -4.43937 0.0119363 
397 1 12.8465 58.3351 1.76027 -4.43937 0.0119363 
703 1 11.1295 58.6681 3.52015 -4.44291 0.00639886 
291 1 11.1295 58.6681 0.000384 -4.44291 0.00639886 
706 1 9.41102 58.9899 5.28003 -4.45302 0.0031699 
294 1 9.41102 58.9899 1.76027 -4.45302 0.0031699 
810 1 13.1989 60.0511 3.52015 -4.44774 0.00110517 
398 1 13.1989 60.0511 0.000384 -4.44774 0.00110517 
705 1 11.4702 60.3948 5.28003 -4.44783 0.00176848 
293 1 11.4702 60.3948 1.76027 -4.44783 0.00176848 
707 1 9.74712 60.7292 3.52015 -4.44923 0.0006837 