ITEM: TIMESTEP
0
ITEM: NUMBER OF ATOMS
208
ITEM: BOX BOUNDS pp pp pp
-1.0000000000000000e-03 8.9742743439232893e+00
-1.0000000000000000e-03 7.1794194751386300e+01
-1.0000000000000000e-03 3.5200000000000000e+00
ITEM: ATOMS id type x y z c_csym 
1 1 2.07099 1.38066 0 7e-06 
2 1 3.79681 1.03549 1.76 8e-06 
3 1 4.14197 2.76132 0 4e-06 
4 1 2.41615 3.10648 1.76 4e-06 
5 1 0 0 0 1.6e-05 
6 1 0.345164 1.72582 1.76 9e-06 
7 1 0.690329 3.45164 0 8e-06 
8 1 2.76132 4.8323 0 4e-06 
9 1 3.45164 8.28395 0 4e-06 
10 1 3.10648 6.55812 1.76 4e-06 
11 1 1.03549 5.17747 1.76 8e-06 
12 1 1.38066 6.90329 0 7e-06 
13 1 1.72582 8.62911 1.76 5e-06 
14 1 4.14197 11.7356 0 4e-06 
15 1 3.79681 10.0098 1.76 4e-06 
16 1 2.22045e-16 8.97427 0 1e-05 
17 1 2.07099 10.3549 0 4e-06 
18 1 0.690329 12.4259 0 8e-06 
19 1 2.41615 12.0808 1.76 4e-06 
20 1 0.345164 10.7001 1.76 8e-06 
21 1 2.76132 13.8066 0 4e-06 
22 1 1.38066 15.8776 0 7e-06 
23 1 3.10648 15.5324 1.76 4e-06 
24 1 1.03549 14.1517 1.76 8e-06 
25 1 3.45164 17.2582 0 5.2421 
26 1 1.72582 17.6034 1.76 6.67314 
53 1 1.72582 18.2937 1.76 6.67314 
54 1 1.03549 21.7454 1.76 8e-06 
55 1 3.10648 20.3647 1.76 4e-06 
56 1 -4.44089e-16 17.9485 0 10.487 
57 1 1.38066 20.0195 0 7e-06 
58 1 3.45164 18.6389 0 5.2421 
59 1 2.76132 22.0905 0 4e-06 
60 1 0.345164 25.197 1.76 8e-06 
61 1 2.41615 23.8163 1.76 4e-06 
62 1 3.79681 25.8873 1.76 4e-06 
63 1 0.690329 23.4712 0 8e-06 
64 1 4.14197 24.1615 0 4e-06 
65 1 2.07099 25.5422 0 4e-06 
66 1 1.72582 27.268 1.76 5e-06 
67 1 1.03549 30.7196 1.76 8e-06 
68 1 3.10648 29.339 1.76 4e-06 
69 1 8.88178e-16 26.9228 0 1e-05 
70 1 3.45164 27.6132 0 4e-06 
71 1 1.38066 28.9938 0 7e-06 
72 1 2.76132 31.0648 0 4e-06 
73 1 0.345164 34.1713 1.76 8e-06 
74 1 2.41615 32.7906 1.76 4e-06 
75 1 3.79681 34.8616 1.76 4e-06 
76 1 0.690329 32.4455 0 8e-06 
77 1 2.07099 34.5164 0 4e-06 
78 1 4.14197 33.1358 0 4e-06 
79 1 1.72582 36.2423 1.76 5e-06 
80 1 1.03549 39.6939 1.76 8e-06 
81 1 3.10648 38.3132 1.76 4e-06 
82 1 -8.88178e-16 35.8971 0 1e-05 
83 1 1.38066 37.9681 0 7e-06 
84 1 3.45164 36.5874 0 4e-06 
85 1 2.76132 40.0391 0 4e-06 
86 1 0.345164 43.1455 1.76 8e-06 
87 1 2.41615 41.7649 1.76 4e-06 
88 1 3.79681 43.8359 1.76 4e-06 
89 1 0.690329 41.4197 0 8e-06 
90 1 4.14197 42.1101 0 4e-06 
91 1 2.07099 43.4907 0 4e-06 
92 1 1.72582 45.2165 1.76 5e-06 
93 1 1.03549 48.6682 1.76 8e-06 
94 1 3.10648 47.2875 1.76 4e-06 
95 1 1.77636e-15 44.8714 0 1e-05 
96 1 3.45164 45.5617 0 4e-06 
97 1 1.38066 46.9424 0 7e-06 
98 1 2.76132 49.0133 0 4e-06 
99 1 0.345164 52.1198 1.76 0.476562 
100 1 2.41615 50.7392 1.76 4e-06 
101 1 3.79681 52.8102 1.76 8.10142 
102 1 0.690329 50.394 0 8e-06 
103 1 2.07099 52.465 0 9.05805 
104 1 4.14197 51.0843 0 4e-06 
157 1 2.07099 55.2263 0 9.05805 
158 1 3.79681 54.8811 1.76 8.10142 
159 1 4.14197 56.607 0 4e-06 
160 1 2.41615 56.9521 1.76 4e-06 
161 1 -1.77636e-15 53.8456 0 10.487 
162 1 0.345164 55.5715 1.76 0.476562 
163 1 0.690329 57.2973 0 8e-06 
164 1 2.76132 58.6779 0 4e-06 
165 1 3.45164 62.1296 0 4e-06 
166 1 3.10648 60.4038 1.76 4e-06 
167 1 1.03549 59.0231 1.76 8e-06 
168 1 1.38066 60.7489 0 7e-06 
169 1 1.72582 62.4748 1.76 5e-06 
170 1 4.14197 65.5812 0 4e-06 
171 1 3.79681 63.8554 1.76 4e-06 
172 1 0 62.8199 0 1e-05 
173 1 2.07099 64.2006 0 4e-06 
174 1 0.690329 66.2716 0 8e-06 
175 1 2.41615 65.9264 1.76 4e-06 
176 1 0.345164 64.5457 1.76 8e-06 
177 1 2.76132 67.6522 0 4e-06 
178 1 1.38066 69.7232 0 8e-06 
179 1 3.10648 69.378 1.76 4e-06 
180 1 1.03549 67.9974 1.76 8e-06 
181 1 3.45164 71.1039 0 8e-06 
182 1 1.72582 71.449 1.76 1.1e-05 
27 1 5.52263 0.690329 0 8e-06 
28 1 7.24845 0.345164 1.76 1.1e-05 
29 1 7.59362 2.07099 0 8e-06 
30 1 6.21296 4.14197 0 4e-06 
31 1 7.93878 3.79681 1.76 8e-06 
32 1 5.86779 2.41615 1.76 4e-06 
33 1 8.28395 5.52263 0 8e-06 
34 1 6.90329 7.59362 0 5e-06 
35 1 8.62911 7.24845 1.76 1e-05 
36 1 6.55812 5.86779 1.76 4e-06 
37 1 4.48714 4.48714 1.76 4e-06 
38 1 4.8323 6.21296 0 4e-06 
39 1 5.17747 7.93878 1.76 4e-06 
40 1 7.59362 11.0453 0 8e-06 
41 1 7.24845 9.31944 1.76 7e-06 
42 1 7.93878 12.7711 1.76 8e-06 
43 1 5.52263 9.6646 0 4e-06 
44 1 5.86779 11.3904 1.76 4e-06 
45 1 6.21296 13.1162 0 4e-06 
46 1 8.28395 14.4969 0 8e-06 
47 1 8.62911 16.2227 1.76 0.476564 
48 1 4.8323 15.1872 0 4e-06 
49 1 6.55812 14.8421 1.76 4e-06 
50 1 4.48714 13.4614 1.76 4e-06 
51 1 6.90329 16.5679 0 9.05805 
52 1 5.17747 16.9131 1.76 8.10142 
105 1 5.17747 18.984 1.76 8.10142 
106 1 6.55812 21.055 1.76 4e-06 
107 1 8.62911 19.6744 1.76 0.476564 
108 1 4.8323 20.7099 0 4e-06 
109 1 6.90329 19.3292 0 9.05805 
110 1 8.28395 21.4002 0 8e-06 
111 1 4.48714 22.4357 1.76 4e-06 
112 1 5.86779 24.5067 1.76 4e-06 
113 1 7.93878 23.126 1.76 8e-06 
114 1 7.24845 26.5777 1.76 7e-06 
115 1 6.21296 22.7809 0 4e-06 
116 1 7.59362 24.8518 0 8e-06 
117 1 5.52263 26.2325 0 4e-06 
118 1 5.17747 27.9583 1.76 4e-06 
119 1 6.55812 30.0293 1.76 4e-06 
120 1 8.62911 28.6486 1.76 1e-05 
121 1 6.90329 28.3035 0 5e-06 
122 1 4.8323 29.6841 0 4e-06 
123 1 8.28395 30.3745 0 8e-06 
124 1 4.48714 31.41 1.76 4e-06 
125 1 5.86779 33.4809 1.76 4e-06 
126 1 7.93878 32.1003 1.76 8e-06 
127 1 7.24845 35.5519 1.76 7e-06 
128 1 6.21296 31.7551 0 4e-06 
129 1 5.52263 35.2068 0 4e-06 
130 1 7.59362 33.8261 0 8e-06 
131 1 5.17747 36.9326 1.76 4e-06 
132 1 6.55812 39.0036 1.76 4e-06 
133 1 8.62911 37.6229 1.76 1e-05 
134 1 4.8323 38.6584 0 4e-06 
135 1 6.90329 37.2778 0 5e-06 
136 1 8.28395 39.3487 0 8e-06 
137 1 4.48714 40.3842 1.76 4e-06 
138 1 5.86779 42.4552 1.76 4e-06 
139 1 7.93878 41.0746 1.76 8e-06 
140 1 7.24845 44.5262 1.76 7e-06 
141 1 6.21296 40.7294 0 4e-06 
142 1 7.59362 42.8004 0 8e-06 
143 1 5.52263 44.181 0 4e-06 
144 1 5.17747 45.9069 1.76 4e-06 
145 1 6.55812 47.9779 1.76 4e-06 
146 1 8.62911 46.5972 1.76 1e-05 
147 1 6.90329 46.252 0 5e-06 
148 1 4.8323 47.6327 0 4e-06 
149 1 8.28395 48.323 0 8e-06 
150 1 4.48714 49.3585 1.76 4e-06 
151 1 5.86779 51.4295 1.76 4e-06 
152 1 7.93878 50.0488 1.76 8e-06 
153 1 7.24845 53.5005 1.76 6.67314 
154 1 6.21296 49.7037 0 4e-06 
155 1 5.52263 53.1553 0 5.2421 
156 1 7.59362 51.7747 0 8e-06 
183 1 5.52263 54.536 0 5.2421 
184 1 7.24845 54.1908 1.76 6.67314 
185 1 7.59362 55.9166 0 8e-06 
186 1 6.21296 57.9876 0 4e-06 
187 1 7.93878 57.6425 1.76 8e-06 
188 1 5.86779 56.2618 1.76 4e-06 
189 1 8.28395 59.3683 0 8e-06 
190 1 6.90329 61.4393 0 5e-06 
191 1 8.62911 61.0941 1.76 1e-05 
192 1 6.55812 59.7134 1.76 4e-06 
193 1 4.48714 58.3328 1.76 4e-06 
194 1 4.8323 60.0586 0 4e-06 
195 1 5.17747 61.7844 1.76 4e-06 
196 1 7.59362 64.8909 0 8e-06 
197 1 7.24845 63.1651 1.76 7e-06 
198 1 7.93878 66.6167 1.76 8e-06 
199 1 5.52263 63.5102 0 4e-06 
200 1 5.86779 65.2361 1.76 4e-06 
201 1 6.21296 66.9619 0 4e-06 
202 1 8.28395 68.3426 0 8e-06 
203 1 8.62911 70.0684 1.76 1.3e-05 
204 1 4.8323 69.0329 0 4e-06 
205 1 6.55812 68.6877 1.76 4e-06 
206 1 4.48714 67.3071 1.76 4e-06 
207 1 6.90329 70.4135 0 9e-06 
208 1 5.17747 70.7587 1.76 8e-06 
