ITEM: TIMESTEP
102
ITEM: NUMBER OF ATOMS
824
ITEM: BOX BOUNDS pp pp pp
5.4074537871399335e-04 1.7944926451710437e+01
1.1324761370883729e-02 7.1781869990015423e+01
-3.9556560940948366e-04 7.0391866968282288e+00
ITEM: ATOMS id type x y z c_csym c_PE 
1 1 1.46981 1.3874 0.000356605 6.24564e-06 -4.44989 
2 1 3.19491 1.04271 1.76025 1.15291e-06 -4.44992 
3 1 3.53975 2.76955 0.000356606 5.05286e-06 -4.45003 
4 1 1.81503 3.11378 1.76025 1.01989e-05 -4.44981 
7 1 0.0900355 3.45802 0.000356606 2.53619e-05 -4.44974 
114 1 3.88417 4.49669 1.76025 5.33668e-05 -4.4504 
413 1 1.46981 1.3874 3.52015 6.24564e-06 -4.44989 
414 1 3.19491 1.04271 5.28004 1.15291e-06 -4.44992 
415 1 3.53975 2.76955 3.52015 5.05286e-06 -4.45003 
416 1 1.81503 3.11378 5.28004 1.01989e-05 -4.44981 
419 1 0.0900355 3.45802 3.52015 2.53619e-05 -4.44974 
526 1 3.88417 4.49669 5.28004 5.33668e-05 -4.4504 
8 1 2.15944 4.84129 0.000356607 1.73251e-05 -4.44998 
9 1 2.84531 8.29709 0.000356604 0.000947432 -4.45096 
10 1 2.50241 6.56996 1.76025 0.000236243 -4.45055 
11 1 0.435496 5.18427 1.76025 6.94627e-05 -4.44941 
12 1 0.779468 6.91338 0.000356606 9.01123e-05 -4.44945 
13 1 1.12094 8.64705 1.76025 0.000953053 -4.4509 
115 1 4.22875 6.22261 0.000356606 0.000163176 -4.45083 
420 1 2.15944 4.84129 3.52015 1.73251e-05 -4.44998 
421 1 2.84531 8.29709 3.52015 0.000947432 -4.45096 
422 1 2.50241 6.56996 5.28004 0.000236243 -4.45055 
423 1 0.435496 5.18427 5.28004 6.94627e-05 -4.44941 
424 1 0.779468 6.91338 3.52015 9.01123e-05 -4.44945 
425 1 1.12094 8.64705 5.28004 0.000953053 -4.4509 
527 1 4.22875 6.22261 3.52015 0.000163176 -4.45083 
14 1 3.56222 11.7297 0.000356601 0.0074543 -4.44686 
15 1 3.19399 10.0175 1.76025 0.00118734 -4.44963 
19 1 1.81419 12.0945 1.76025 0.0158328 -4.45531 
17 1 1.46341 10.3802 0.000356602 0.00556328 -4.45461 
18 1 0.0546232 12.4615 0.0003566 0.0397618 -4.45441 
127 1 3.94815 13.4511 1.76025 0.0917486 -4.44544 
426 1 3.56222 11.7297 3.52015 0.0074543 -4.44686 
427 1 3.19399 10.0175 5.28004 0.00118734 -4.44963 
431 1 1.81419 12.0945 5.28004 0.0158328 -4.45531 
429 1 1.46341 10.3802 3.52015 0.00556328 -4.45461 
430 1 0.0546232 12.4615 3.52015 0.0397618 -4.45441 
539 1 3.94815 13.4511 5.28004 0.0917486 -4.44544 
21 1 2.18104 13.7598 0.000356599 0.0491926 -4.44256 
22 1 0.716093 15.7346 0.0003566 8.39109 -4.10705 
23 1 2.47291 15.3945 1.76025 3.4212 -4.32232 
24 1 0.356393 14.1414 1.76025 0.4919 -4.35773 
25 1 2.78286 16.9154 0.000356605 6.42131 -4.0408 
125 1 4.33196 15.1483 0.000356601 0.483603 -4.40835 
433 1 2.18104 13.7598 3.52015 0.0491926 -4.44256 
434 1 0.716093 15.7346 3.52015 8.39109 -4.10705 
435 1 2.47291 15.3945 5.28004 3.4212 -4.32232 
436 1 0.356393 14.1414 5.28004 0.4919 -4.35773 
437 1 2.78286 16.9154 3.52015 6.42131 -4.0408 
537 1 4.33196 15.1483 3.52015 0.483603 -4.40835 
26 1 2.4463 18.4226 1.76025 3.55859 -4.31311 
27 1 1.79229 21.7291 1.76025 0.0140705 -4.45609 
28 1 3.92274 20.3723 1.76025 0.0865205 -4.44613 
29 1 0.666653 18.0548 0.000356609 9.11357 -4.10735 
30 1 2.15138 20.0526 0.000356607 0.0377491 -4.44791 
31 1 4.31847 18.6849 0.000356608 0.508691 -4.40112 
32 1 3.53539 22.0925 0.000356607 0.00454552 -4.44843 
438 1 2.4463 18.4226 5.28004 3.55859 -4.31311 
439 1 1.79229 21.7291 5.28004 0.0140705 -4.45609 
440 1 3.92274 20.3723 5.28004 0.0865205 -4.44613 
441 1 0.666653 18.0548 3.52015 9.11357 -4.10735 
442 1 2.15138 20.0526 3.52015 0.0377491 -4.44791 
443 1 4.31847 18.6849 3.52015 0.508691 -4.40112 
444 1 3.53539 22.0925 3.52015 0.00454552 -4.44843 
338 1 0.340679 19.683 1.76025 0.863868 -4.33514 
341 1 0.036652 21.3709 0.000356609 0.0276133 -4.45634 
750 1 0.340679 19.683 5.28004 0.863868 -4.33514 
753 1 0.036652 21.3709 3.52015 0.0276133 -4.45634 
33 1 1.09979 25.1827 1.76025 0.000605619 -4.4505 
34 1 3.17067 23.8087 1.76025 0.00112337 -4.4497 
38 1 2.82338 25.5312 0.000356601 0.000761119 -4.45074 
36 1 1.44249 23.4486 0.000356605 0.00420778 -4.45397 
42 1 0.757671 26.9156 0.000356599 8.11149e-05 -4.44935 
445 1 1.09979 25.1827 5.28004 0.000605619 -4.4505 
446 1 3.17067 23.8087 5.28004 0.00112337 -4.4497 
450 1 2.82338 25.5312 3.52015 0.000761119 -4.45074 
448 1 1.44249 23.4486 3.52015 0.00420778 -4.45397 
454 1 0.757671 26.9156 3.52015 8.11149e-05 -4.44935 
39 1 2.48068 27.2588 1.76025 0.000155869 -4.45039 
40 1 1.79285 30.7145 1.76025 9.66577e-06 -4.44982 
41 1 3.86215 29.3317 1.76025 3.66674e-05 -4.45032 
43 1 4.20661 27.6054 0.000356598 0.00013692 -4.45077 
44 1 2.13746 28.9873 0.000356597 1.1602e-05 -4.44992 
45 1 3.51765 31.0588 0.000356597 2.85216e-06 -4.45 
451 1 2.48068 27.2588 5.28004 0.000155869 -4.45039 
452 1 1.79285 30.7145 5.28004 9.66577e-06 -4.44982 
453 1 3.86215 29.3317 5.28004 3.66674e-05 -4.45032 
455 1 4.20661 27.6054 3.52015 0.00013692 -4.45077 
456 1 2.13746 28.9873 3.52015 1.1602e-05 -4.44992 
457 1 3.51765 31.0588 3.52015 2.85216e-06 -4.45 
354 1 0.0677037 30.37 0.000356597 1.79479e-05 -4.4498 
351 1 0.413273 28.6441 1.76025 6.12882e-05 -4.44946 
766 1 0.0677037 30.37 3.52015 1.79479e-05 -4.4498 
763 1 0.413273 28.6441 5.28004 6.12882e-05 -4.44946 
46 1 1.10215 34.1666 1.76025 1.44862e-06 -4.45002 
47 1 3.17273 32.7855 1.76025 1.22852e-06 -4.44992 
50 1 2.82757 34.5119 0.000356602 2.14586e-06 -4.44997 
49 1 1.44756 32.4407 0.000356599 5.04877e-06 -4.44992 
55 1 0.756736 35.8923 0.000356604 2.23187e-07 -4.45006 
458 1 1.10215 34.1666 5.28004 1.44862e-06 -4.45002 
459 1 3.17273 32.7855 5.28004 1.22852e-06 -4.44992 
462 1 2.82757 34.5119 3.52015 2.14586e-06 -4.44997 
461 1 1.44756 32.4407 3.52015 5.04877e-06 -4.44992 
467 1 0.756736 35.8923 3.52015 2.23187e-07 -4.45006 
52 1 2.48238 36.238 1.76025 3.32201e-06 -4.45007 
53 1 1.79125 39.6888 1.76025 8.54792e-06 -4.44996 
54 1 3.86279 38.3097 1.76025 1.23879e-05 -4.45016 
56 1 2.13706 37.9637 0.000356606 3.60376e-06 -4.45012 
57 1 4.20772 36.5832 0.000356605 2.21295e-06 -4.45001 
58 1 3.51758 40.0355 0.000356607 2.57534e-05 -4.45031 
464 1 2.48238 36.238 5.28004 3.32201e-06 -4.45007 
465 1 1.79125 39.6888 5.28004 8.54792e-06 -4.44996 
466 1 3.86279 38.3097 5.28004 1.23879e-05 -4.45016 
468 1 2.13706 37.9637 3.52015 3.60376e-06 -4.45012 
469 1 4.20772 36.5832 3.52015 2.21295e-06 -4.45001 
470 1 3.51758 40.0355 3.52015 2.57534e-05 -4.45031 
367 1 0.0654384 39.3433 0.000356607 2.53619e-05 -4.44974 
364 1 0.411187 37.6179 1.76025 3.06624e-06 -4.44998 
779 1 0.0654384 39.3433 3.52015 2.53619e-05 -4.44974 
776 1 0.411187 37.6179 5.28004 3.06624e-06 -4.44998 
59 1 1.09782 43.1391 1.76025 0.000421313 -4.44881 
60 1 3.17117 41.7596 1.76025 3.57942e-05 -4.45019 
64 1 2.8229 43.4814 0.000356605 0.000435493 -4.44942 
62 1 1.44461 41.4132 0.000356607 0.000107701 -4.44945 
471 1 1.09782 43.1391 5.28004 0.000421313 -4.44881 
472 1 3.17117 41.7596 5.28004 3.57942e-05 -4.45019 
476 1 2.8229 43.4814 3.52015 0.000435493 -4.44942 
474 1 1.44461 41.4132 3.52015 0.000107701 -4.44945 
65 1 2.47535 45.2036 1.76025 0.00216299 -4.44738 
66 1 1.82414 48.6958 1.76025 0.0578328 -4.42455 
67 1 3.8497 47.263 1.76025 0.0138524 -4.43869 
68 1 0.753609 44.8709 0.000356604 0.000668487 -4.44928 
69 1 4.20263 45.545 0.000356603 0.00177965 -4.44699 
70 1 2.13647 46.9336 0.000356602 0.00665338 -4.44261 
71 1 3.48314 49.0095 0.000356602 0.0703573 -4.41288 
477 1 2.47535 45.2036 5.28004 0.00216299 -4.44738 
478 1 1.82414 48.6958 5.28004 0.0578328 -4.42455 
479 1 3.8497 47.263 5.28004 0.0138524 -4.43869 
480 1 0.753609 44.8709 3.52015 0.000668487 -4.44928 
481 1 4.20263 45.545 3.52015 0.00177965 -4.44699 
482 1 2.13647 46.9336 3.52015 0.00665338 -4.44261 
483 1 3.48314 49.0095 3.52015 0.0703573 -4.41288 
377 1 0.419451 46.6121 1.76025 0.00460208 -4.45352 
380 1 0.100851 48.3468 0.0003566 0.0397618 -4.45441 
789 1 0.419451 46.6121 5.28004 0.00460208 -4.45352 
792 1 0.100851 48.3468 3.52015 0.0397618 -4.45441 
72 1 1.00792 52.6614 1.76025 7.57212 -4.25236 
73 1 3.09949 50.8903 1.76025 0.350512 -4.36423 
76 1 2.83211 52.8057 0.000356605 2.07254 -4.38715 
75 1 1.51602 50.5198 0.000356601 0.550367 -4.31945 
484 1 1.00792 52.6614 5.28004 7.57212 -4.25236 
485 1 3.09949 50.8903 5.28004 0.350512 -4.36423 
488 1 2.83211 52.8057 3.52015 2.07254 -4.38715 
487 1 1.51602 50.5198 3.52015 0.550367 -4.31945 
78 1 1.53358 55.1029 0.000356609 1.09567 -4.25168 
79 1 3.11266 54.7164 1.76025 0.573807 -4.33399 
80 1 3.50573 56.5964 0.000356608 0.0744259 -4.41419 
81 1 1.84186 56.9115 1.76025 0.0518118 -4.4243 
84 1 0.118822 57.2562 0.000356607 0.0276133 -4.45634 
490 1 1.53358 55.1029 3.52015 1.09567 -4.25168 
491 1 3.11266 54.7164 5.28004 0.573807 -4.33399 
492 1 3.50573 56.5964 3.52015 0.0744259 -4.41419 
493 1 1.84186 56.9115 5.28004 0.0518117 -4.4243 
496 1 0.118822 57.2562 3.52015 0.0276133 -4.45634 
85 1 2.15732 58.6683 0.000356605 0.00640935 -4.44291 
86 1 2.84583 62.1163 0.0003566 0.000274058 -4.44974 
87 1 2.49804 60.395 1.76025 0.00175812 -4.44783 
88 1 0.438827 58.99 1.76025 0.00318686 -4.45302 
89 1 0.774929 60.7294 0.000356602 0.000685467 -4.44923 
90 1 1.12018 62.4597 1.76025 0.000355853 -4.44894 
191 1 3.87435 58.3352 1.76025 0.0119187 -4.43937 
192 1 4.22673 60.0513 0.000356603 0.00111219 -4.44775 
497 1 2.15732 58.6683 3.52015 0.00640935 -4.44291 
498 1 2.84583 62.1163 3.52015 0.000274058 -4.44974 
499 1 2.49804 60.395 5.28004 0.00175812 -4.44783 
500 1 0.438827 58.99 5.28004 0.00318686 -4.45302 
501 1 0.774929 60.7294 3.52015 0.000685467 -4.44923 
502 1 1.12018 62.4597 5.28004 0.000355853 -4.44894 
603 1 3.87435 58.3352 5.28004 0.0119187 -4.43937 
604 1 4.22673 60.0513 3.52015 0.00111219 -4.44775 
91 1 3.53981 65.5631 0.000356597 2.31153e-05 -4.45028 
92 1 3.1937 63.8386 1.76025 2.72733e-05 -4.45027 
96 1 1.81363 65.9097 1.76025 5.018e-06 -4.45001 
94 1 1.46715 64.1851 0.000356598 7.04247e-05 -4.44958 
95 1 0.0877702 66.2553 0.000356597 1.79479e-05 -4.4498 
204 1 3.88493 67.2891 1.76025 9.30338e-06 -4.45012 
503 1 3.53981 65.5631 3.52015 2.31153e-05 -4.45028 
504 1 3.1937 63.8386 5.28004 2.72733e-05 -4.45027 
508 1 1.81363 65.9097 5.28004 5.018e-06 -4.45001 
506 1 1.46715 64.1851 3.52015 7.04247e-05 -4.44958 
507 1 0.0877702 66.2553 3.52015 1.79479e-05 -4.4498 
616 1 3.88493 67.2891 5.28004 9.30338e-06 -4.45012 
98 1 2.15931 67.6349 0.000356598 3.55957e-06 -4.45011 
99 1 0.778981 69.7063 0.0003566 2.73006e-07 -4.45006 
100 1 2.50458 69.3607 1.76025 3.01565e-06 -4.45005 
101 1 0.433477 67.9807 1.76025 1.73535e-06 -4.45001 
102 1 2.84978 71.0869 0.000356602 2.0055e-06 -4.44996 
103 1 1.12439 71.432 1.76025 1.90599e-06 -4.45 
202 1 4.22988 69.0156 0.000356599 1.40366e-06 -4.44999 
510 1 2.15931 67.6349 3.52015 3.55957e-06 -4.45011 
511 1 0.778981 69.7063 3.52015 2.73006e-07 -4.45006 
512 1 2.50458 69.3607 5.28004 3.01565e-06 -4.45005 
513 1 0.433477 67.9807 5.28004 1.73535e-06 -4.45001 
514 1 2.84978 71.0869 3.52015 2.0055e-06 -4.44996 
515 1 1.12439 71.432 5.28004 1.90599e-06 -4.45 
614 1 4.22988 69.0156 3.52015 1.40366e-06 -4.44999 
104 1 4.91994 0.697952 0.000356604 2.21295e-06 -4.45001 
105 1 6.64529 0.352703 1.76025 3.32201e-06 -4.45007 
106 1 6.9906 2.07846 0.000356606 3.60378e-06 -4.45012 
107 1 5.61009 4.1502 0.000356607 2.57534e-05 -4.45031 
108 1 7.33642 3.80349 1.76025 8.54793e-06 -4.44996 
109 1 5.26488 2.42439 1.76025 1.23879e-05 -4.45016 
516 1 4.91994 0.697952 3.52015 2.21295e-06 -4.45001 
517 1 6.64529 0.352703 5.28004 3.32201e-06 -4.45007 
518 1 6.9906 2.07846 3.52015 3.60378e-06 -4.45012 
519 1 5.61009 4.1502 3.52015 2.57534e-05 -4.45031 
520 1 7.33642 3.80349 5.28004 8.54793e-06 -4.44996 
521 1 5.26488 2.42439 5.28004 1.23879e-05 -4.45016 
212 1 8.71648 1.73261 1.76025 3.06624e-06 -4.44998 
624 1 8.71648 1.73261 5.28004 3.06624e-06 -4.44998 
110 1 7.68305 5.52795 0.000356607 0.000107701 -4.44945 
111 1 6.30477 7.59613 0.000356605 0.000435493 -4.44942 
112 1 8.02985 7.25387 1.76025 0.000421313 -4.44881 
113 1 5.95649 5.87428 1.76025 3.57943e-05 -4.45019 
116 1 4.57504 7.94424 1.76025 0.00018071 -4.45035 
522 1 7.68305 5.52795 3.52015 0.000107701 -4.44945 
523 1 6.30477 7.59613 3.52015 0.000435493 -4.44942 
524 1 8.02985 7.25387 5.28004 0.000421313 -4.44881 
525 1 5.95649 5.87428 5.28004 3.57943e-05 -4.45019 
528 1 4.57504 7.94424 5.28004 0.00018071 -4.45035 
117 1 6.9912 11.0483 0.000356601 0.00665338 -4.44261 
118 1 6.65231 9.3183 1.76025 0.00216299 -4.44738 
119 1 7.30352 12.8105 1.76025 0.0578328 -4.42455 
120 1 4.92503 9.65971 0.000356602 0.00177965 -4.44699 
121 1 5.27796 11.3777 1.76025 0.0138524 -4.43869 
122 1 5.64453 13.1242 0.0003566 0.0703573 -4.41288 
529 1 6.9912 11.0483 3.52015 0.00665338 -4.44261 
530 1 6.65231 9.3183 5.28004 0.00216299 -4.44738 
531 1 7.30352 12.8105 5.28004 0.0578328 -4.42455 
532 1 4.92503 9.65971 3.52015 0.00177965 -4.44699 
533 1 5.27796 11.3777 5.28004 0.0138524 -4.43869 
534 1 5.64453 13.1242 3.52015 0.0703573 -4.41288 
222 1 8.37406 8.98558 0.000356603 0.000668487 -4.44928 
226 1 8.70822 10.7268 1.76025 0.00460208 -4.45352 
634 1 8.37406 8.98558 3.52015 0.000668487 -4.44928 
638 1 8.70822 10.7268 5.28004 0.00460208 -4.45352 
123 1 7.61164 14.6345 0.0003566 0.550368 -4.31945 
124 1 8.11975 16.7762 1.76025 7.57212 -4.25236 
129 1 4.49781 16.9166 1.76025 1.09986 -4.42269 
126 1 6.02817 15.005 1.76025 0.350512 -4.36423 
128 1 6.29556 16.9204 0.000356605 2.07254 -4.38715 
535 1 7.61164 14.6345 3.52015 0.550368 -4.31945 
536 1 8.11975 16.7762 5.28004 7.57212 -4.25236 
541 1 4.49781 16.9166 5.28004 1.09986 -4.42269 
538 1 6.02817 15.005 5.28004 0.350512 -4.36423 
540 1 6.29556 16.9204 3.52015 2.07254 -4.38715 
130 1 6.01501 18.8312 1.76025 0.573807 -4.33399 
131 1 7.28581 21.0263 1.76025 0.0518118 -4.4243 
134 1 7.59409 19.2176 0.00035661 1.09567 -4.25168 
133 1 5.62194 20.7111 0.000356609 0.0744259 -4.41419 
542 1 6.01501 18.8312 5.28004 0.573807 -4.33399 
543 1 7.28581 21.0263 5.28004 0.0518118 -4.4243 
546 1 7.59409 19.2176 3.52015 1.09567 -4.25168 
545 1 5.62194 20.7111 3.52015 0.0744259 -4.41419 
136 1 5.25332 22.45 1.76025 0.0119187 -4.43937 
137 1 6.62963 24.5097 1.76025 0.00175812 -4.44783 
138 1 8.68884 23.1048 1.76025 0.00318686 -4.45302 
139 1 8.00748 26.5744 1.76025 0.000355853 -4.44894 
140 1 6.97034 22.783 0.000356606 0.00640935 -4.44291 
141 1 8.35274 24.8442 0.000356603 0.000685467 -4.44923 
142 1 6.28184 26.231 0.0003566 0.000274058 -4.44974 
35 1 4.55228 25.8827 1.76025 0.000166388 -4.45055 
37 1 4.90094 24.1661 0.000356604 0.00111219 -4.44775 
548 1 5.25332 22.45 5.28004 0.0119187 -4.43937 
549 1 6.62963 24.5097 5.28004 0.00175812 -4.44783 
550 1 8.68884 23.1048 5.28004 0.00318686 -4.45302 
551 1 8.00748 26.5744 5.28004 0.000355853 -4.44894 
552 1 6.97034 22.783 3.52015 0.00640935 -4.44291 
553 1 8.35274 24.8442 3.52015 0.000685467 -4.44923 
554 1 6.28184 26.231 3.52015 0.000274058 -4.44974 
447 1 4.55228 25.8827 5.28004 0.000166388 -4.45055 
449 1 4.90094 24.1661 3.52015 0.00111219 -4.44775 
143 1 5.93397 27.9533 1.76025 2.72733e-05 -4.45027 
144 1 7.31404 30.0244 1.76025 5.018e-06 -4.45001 
147 1 5.58786 29.6778 0.000356597 2.31153e-05 -4.45028 
146 1 7.66052 28.2998 0.000356597 7.04248e-05 -4.44958 
149 1 5.24273 31.4038 1.76025 9.30339e-06 -4.45012 
555 1 5.93397 27.9533 5.28004 2.72733e-05 -4.45027 
556 1 7.31404 30.0244 5.28004 5.018e-06 -4.45001 
559 1 5.58786 29.6778 3.52015 2.31153e-05 -4.45028 
558 1 7.66052 28.2998 3.52015 7.04248e-05 -4.44958 
561 1 5.24273 31.4038 5.28004 9.30338e-06 -4.45012 
51 1 4.89778 33.1303 0.0003566 1.40366e-06 -4.44999 
150 1 6.62308 33.4755 1.76025 3.01565e-06 -4.45005 
151 1 8.69419 32.0954 1.76025 1.73535e-06 -4.45001 
152 1 8.00328 35.5468 1.76025 1.90599e-06 -4.45 
153 1 6.96836 31.7496 0.000356598 3.55957e-06 -4.45011 
154 1 6.27789 35.2016 0.000356603 2.0055e-06 -4.44996 
155 1 8.34869 33.821 0.000356601 2.73006e-07 -4.45006 
48 1 4.55274 34.8568 1.76025 1.18472e-08 -4.44995 
463 1 4.89778 33.1303 3.52015 1.40366e-06 -4.44999 
562 1 6.62308 33.4755 5.28004 3.01565e-06 -4.45005 
563 1 8.69419 32.0954 5.28004 1.73535e-06 -4.45001 
564 1 8.00328 35.5468 5.28004 1.90599e-06 -4.45 
565 1 6.96836 31.7496 3.52015 3.55957e-06 -4.45011 
566 1 6.27789 35.2016 3.52015 2.0055e-06 -4.44996 
567 1 8.34869 33.821 3.52015 2.73006e-07 -4.45006 
460 1 4.55274 34.8568 5.28004 1.18472e-08 -4.44995 
156 1 5.93276 36.928 1.76025 1.15291e-06 -4.44992 
157 1 7.31263 38.999 1.76025 1.01989e-05 -4.44981 
160 1 7.65786 37.2727 0.000356606 6.24565e-06 -4.44989 
159 1 5.58792 38.6548 0.000356607 5.05286e-06 -4.45003 
162 1 5.2435 40.382 1.76025 5.33667e-05 -4.4504 
568 1 5.93276 36.928 5.28004 1.15291e-06 -4.44992 
569 1 7.31263 38.999 5.28004 1.01989e-05 -4.44981 
572 1 7.65786 37.2727 3.52015 6.24565e-06 -4.44989 
571 1 5.58792 38.6548 3.52015 5.05286e-06 -4.45003 
574 1 5.2435 40.382 5.28004 5.33667e-05 -4.4504 
63 1 4.89892 42.1079 0.000356606 0.000163176 -4.45083 
163 1 6.62525 42.4552 1.76025 0.000236243 -4.45055 
164 1 8.69217 41.0695 1.76025 6.94628e-05 -4.44941 
165 1 8.00673 44.5323 1.76025 0.000953053 -4.4509 
166 1 6.96823 40.7266 0.000356607 1.73251e-05 -4.44998 
167 1 8.3482 42.7987 0.000356606 9.01123e-05 -4.44945 
168 1 6.28236 44.1824 0.000356604 0.000947432 -4.45096 
61 1 4.55263 43.8295 1.76025 0.00018071 -4.45035 
475 1 4.89892 42.1079 3.52015 0.000163176 -4.45083 
575 1 6.62525 42.4552 5.28004 0.000236243 -4.45055 
576 1 8.69217 41.0695 5.28004 6.94628e-05 -4.44941 
577 1 8.00673 44.5323 5.28004 0.000953053 -4.4509 
578 1 6.96823 40.7266 3.52015 1.73251e-05 -4.44998 
579 1 8.3482 42.7987 3.52015 9.01123e-05 -4.44945 
580 1 6.28236 44.1824 3.52015 0.000947432 -4.45096 
473 1 4.55263 43.8295 5.28004 0.00018071 -4.45035 
169 1 5.93368 45.9027 1.76025 0.00118734 -4.44963 
170 1 7.31348 47.9798 1.76025 0.0158328 -4.45531 
173 1 5.56544 47.6149 0.000356602 0.00745431 -4.44686 
172 1 7.66426 46.2655 0.000356602 0.00556328 -4.45461 
175 1 5.17952 49.3364 1.76025 0.0917486 -4.44544 
581 1 5.93368 45.9027 5.28004 0.00118734 -4.44963 
582 1 7.31348 47.9798 5.28004 0.0158328 -4.45531 
585 1 5.56544 47.6149 3.52015 0.00745431 -4.44686 
584 1 7.66426 46.2655 3.52015 0.00556328 -4.45461 
587 1 5.17952 49.3364 5.28004 0.0917486 -4.44544 
77 1 4.79571 51.0335 0.000356603 0.483603 -4.40835 
176 1 6.65476 51.2797 1.76025 3.4212 -4.32232 
177 1 8.77127 50.0266 1.76025 0.4919 -4.35773 
178 1 8.41157 51.6199 0.000356601 8.39109 -4.10705 
179 1 6.94663 49.645 0.000356599 0.0491926 -4.44256 
180 1 6.34481 52.8006 0.000356613 6.42131 -4.0408 
74 1 4.62986 52.8018 1.76025 1.09986 -4.42269 
489 1 4.79571 51.0335 3.52015 0.483603 -4.40835 
588 1 6.65476 51.2797 5.28004 3.4212 -4.32232 
589 1 8.77127 50.0266 5.28004 0.4919 -4.35773 
590 1 8.41157 51.6199 3.52015 8.39109 -4.10705 
591 1 6.94663 49.645 3.52015 0.0491926 -4.44256 
592 1 6.34481 52.8006 3.52015 6.42131 -4.0408 
486 1 4.62986 52.8018 5.28004 1.09986 -4.42269 
181 1 4.80919 54.5702 0.000356607 0.508691 -4.40112 
182 1 6.68137 54.3079 1.76025 3.55859 -4.31311 
183 1 6.97629 55.9379 0.000356604 0.0377491 -4.44791 
184 1 5.59228 57.9778 0.000356606 0.00454552 -4.44843 
185 1 7.33537 57.6144 1.76025 0.0140705 -4.45609 
186 1 5.20493 56.2576 1.76025 0.0865205 -4.44613 
593 1 4.80919 54.5702 3.52015 0.508691 -4.40112 
594 1 6.68137 54.3079 5.28004 3.55859 -4.31311 
595 1 6.97629 55.9379 3.52015 0.0377491 -4.44791 
596 1 5.59228 57.9778 3.52015 0.00454552 -4.44843 
597 1 7.33537 57.6144 5.28004 0.0140705 -4.45609 
598 1 5.20493 56.2576 5.28004 0.0865205 -4.44613 
288 1 8.46101 53.9401 0.000356608 9.11357 -4.10735 
289 1 8.78699 55.5682 1.76025 0.863868 -4.33514 
700 1 8.46101 53.9401 3.52015 9.11357 -4.10735 
701 1 8.78699 55.5682 5.28004 0.863868 -4.33514 
187 1 7.68518 59.3339 0.000356605 0.00420777 -4.45397 
188 1 6.30429 61.4164 0.000356601 0.000761119 -4.45074 
189 1 8.02788 61.0679 1.76025 0.000605618 -4.4505 
190 1 5.957 59.6939 1.76025 0.00112337 -4.4497 
193 1 4.57538 61.768 1.76025 0.000166388 -4.45055 
599 1 7.68518 59.3339 3.52015 0.00420777 -4.45397 
600 1 6.30429 61.4164 3.52015 0.000761119 -4.45074 
601 1 8.02788 61.0679 5.28004 0.000605618 -4.4505 
602 1 5.957 59.6939 5.28004 0.00112337 -4.4497 
605 1 4.57538 61.768 5.28004 0.000166388 -4.45055 
299 1 8.37 62.8009 0.000356599 8.11148e-05 -4.44935 
711 1 8.37 62.8009 3.52015 8.11148e-05 -4.44935 
194 1 6.99021 64.8725 0.000356597 1.1602e-05 -4.44992 
195 1 6.64699 63.1441 1.76025 0.000155869 -4.45039 
196 1 7.33481 66.5998 1.76025 9.66575e-06 -4.44982 
197 1 4.92105 63.4907 0.000356598 0.00013692 -4.45077 
198 1 5.26552 65.217 1.76025 3.66674e-05 -4.45032 
199 1 5.61002 66.9441 0.000356597 2.85215e-06 -4.45 
606 1 6.99021 64.8725 3.52015 1.1602e-05 -4.44992 
607 1 6.64699 63.1441 5.28004 0.000155869 -4.45039 
608 1 7.33481 66.5998 5.28004 9.66575e-06 -4.44982 
609 1 4.92105 63.4907 3.52015 0.00013692 -4.45077 
610 1 5.26552 65.217 5.28004 3.66674e-05 -4.45032 
611 1 5.61002 66.9441 3.52015 2.85215e-06 -4.45 
303 1 8.71439 64.5293 1.76025 6.12881e-05 -4.44946 
715 1 8.71439 64.5293 5.28004 6.12881e-05 -4.44946 
200 1 7.68011 68.326 0.000356598 5.04876e-06 -4.44992 
201 1 8.02552 70.0519 1.76025 1.44862e-06 -4.45002 
206 1 4.57492 70.742 1.76025 1.18474e-08 -4.44995 
203 1 5.95494 68.6708 1.76025 1.22851e-06 -4.44992 
205 1 6.30009 70.3971 0.000356601 2.14586e-06 -4.44997 
612 1 7.68011 68.326 3.52015 5.04876e-06 -4.44992 
613 1 8.02552 70.0519 5.28004 1.44862e-06 -4.45002 
618 1 4.57492 70.742 5.28004 1.18474e-08 -4.44995 
615 1 5.95494 68.6708 5.28004 1.22851e-06 -4.44992 
617 1 6.30009 70.3971 3.52015 2.14586e-06 -4.44997 
211 1 8.37093 71.7776 0.000356603 2.23187e-07 -4.45006 
623 1 8.37093 71.7776 3.52015 2.23187e-07 -4.45006 
207 1 10.442 1.3874 0.000356605 6.24564e-06 -4.44989 
208 1 12.1671 1.04271 1.76025 1.15291e-06 -4.44992 
209 1 12.5119 2.76955 0.000356606 5.05286e-06 -4.45003 
210 1 10.7872 3.11378 1.76025 1.01989e-05 -4.44981 
213 1 9.06223 3.45802 0.000356606 2.53619e-05 -4.44974 
320 1 12.8564 4.49669 1.76025 5.33668e-05 -4.4504 
619 1 10.442 1.3874 3.52015 6.24564e-06 -4.44989 
620 1 12.1671 1.04271 5.28004 1.15291e-06 -4.44992 
621 1 12.5119 2.76955 3.52015 5.05286e-06 -4.45003 
622 1 10.7872 3.11378 5.28004 1.01989e-05 -4.44981 
625 1 9.06223 3.45802 3.52015 2.53619e-05 -4.44974 
732 1 12.8564 4.49669 5.28004 5.33668e-05 -4.4504 
214 1 11.1316 4.84129 0.000356607 1.73251e-05 -4.44998 
215 1 11.8175 8.29709 0.000356604 0.000947432 -4.45096 
216 1 11.4746 6.56996 1.76025 0.000236243 -4.45055 
217 1 9.40769 5.18427 1.76025 6.94627e-05 -4.44941 
218 1 9.75166 6.91338 0.000356606 9.01123e-05 -4.44945 
219 1 10.0931 8.64705 1.76025 0.000953053 -4.4509 
321 1 13.2009 6.22261 0.000356606 0.000163176 -4.45083 
626 1 11.1316 4.84129 3.52015 1.73251e-05 -4.44998 
627 1 11.8175 8.29709 3.52015 0.000947432 -4.45096 
628 1 11.4746 6.56996 5.28004 0.000236243 -4.45055 
629 1 9.40769 5.18427 5.28004 6.94627e-05 -4.44941 
630 1 9.75166 6.91338 3.52015 9.01123e-05 -4.44945 
631 1 10.0931 8.64705 5.28004 0.000953053 -4.4509 
733 1 13.2009 6.22261 3.52015 0.000163176 -4.45083 
220 1 12.5344 11.7297 0.000356601 0.0074543 -4.44686 
221 1 12.1662 10.0175 1.76025 0.00118734 -4.44963 
225 1 10.7864 12.0945 1.76025 0.0158328 -4.45531 
223 1 10.4356 10.3802 0.000356602 0.00556328 -4.45461 
224 1 9.02682 12.4615 0.0003566 0.0397618 -4.45441 
333 1 12.9203 13.4511 1.76025 0.0917486 -4.44544 
632 1 12.5344 11.7297 3.52015 0.0074543 -4.44686 
633 1 12.1662 10.0175 5.28004 0.00118734 -4.44963 
637 1 10.7864 12.0945 5.28004 0.0158328 -4.45531 
635 1 10.4356 10.3802 3.52015 0.00556328 -4.45461 
636 1 9.02682 12.4615 3.52015 0.0397618 -4.45441 
745 1 12.9203 13.4511 5.28004 0.0917486 -4.44544 
227 1 11.1532 13.7598 0.0003566 0.0491926 -4.44256 
228 1 9.68829 15.7346 0.0003566 8.39109 -4.10705 
229 1 11.4451 15.3945 1.76025 3.4212 -4.32232 
230 1 9.32859 14.1414 1.76025 0.4919 -4.35773 
231 1 11.755 16.9154 0.000356603 6.42131 -4.0408 
331 1 13.3041 15.1483 0.000356601 0.483603 -4.40835 
639 1 11.1532 13.7598 3.52015 0.0491926 -4.44256 
640 1 9.68829 15.7346 3.52015 8.39109 -4.10705 
641 1 11.4451 15.3945 5.28004 3.4212 -4.32232 
642 1 9.32859 14.1414 5.28004 0.4919 -4.35773 
643 1 11.755 16.9154 3.52015 6.42131 -4.0408 
743 1 13.3041 15.1483 3.52015 0.483603 -4.40835 
132 1 9.31287 19.683 1.76025 0.863868 -4.33514 
135 1 9.00884 21.3709 0.000356609 0.0276133 -4.45634 
544 1 9.31287 19.683 5.28004 0.863868 -4.33514 
547 1 9.00884 21.3709 3.52015 0.0276133 -4.45634 
232 1 11.4185 18.4226 1.76025 3.55859 -4.31311 
233 1 10.7645 21.7291 1.76025 0.0140705 -4.45609 
234 1 12.8949 20.3723 1.76025 0.0865205 -4.44613 
235 1 9.63885 18.0548 0.000356609 9.11357 -4.10735 
236 1 11.1236 20.0526 0.000356608 0.0377491 -4.44791 
237 1 13.2907 18.6849 0.000356608 0.508691 -4.40112 
238 1 12.5076 22.0925 0.000356607 0.00454552 -4.44843 
644 1 11.4185 18.4226 5.28004 3.55859 -4.31311 
645 1 10.7645 21.7291 5.28004 0.0140705 -4.45609 
646 1 12.8949 20.3723 5.28004 0.0865205 -4.44613 
647 1 9.63885 18.0548 3.52015 9.11357 -4.10735 
648 1 11.1236 20.0526 3.52015 0.0377491 -4.44791 
649 1 13.2907 18.6849 3.52015 0.508691 -4.40112 
650 1 12.5076 22.0925 3.52015 0.00454552 -4.44843 
239 1 10.072 25.1827 1.76025 0.000605619 -4.4505 
240 1 12.1429 23.8087 1.76025 0.00112337 -4.4497 
244 1 11.7956 25.5312 0.000356601 0.000761119 -4.45074 
242 1 10.4147 23.4486 0.000356605 0.00420778 -4.45397 
248 1 9.72986 26.9156 0.000356599 8.11149e-05 -4.44935 
651 1 10.072 25.1827 5.28004 0.000605619 -4.4505 
652 1 12.1429 23.8087 5.28004 0.00112337 -4.4497 
656 1 11.7956 25.5312 3.52015 0.000761119 -4.45074 
654 1 10.4147 23.4486 3.52015 0.00420778 -4.45397 
660 1 9.72986 26.9156 3.52015 8.11149e-05 -4.44935 
148 1 9.0399 30.37 0.000356597 1.79479e-05 -4.4498 
145 1 9.38547 28.6441 1.76025 6.12882e-05 -4.44946 
560 1 9.0399 30.37 3.52015 1.79479e-05 -4.4498 
557 1 9.38547 28.6441 5.28004 6.12882e-05 -4.44946 
245 1 11.4529 27.2588 1.76025 0.000155869 -4.45039 
246 1 10.765 30.7145 1.76025 9.66577e-06 -4.44982 
247 1 12.8343 29.3317 1.76025 3.66674e-05 -4.45032 
249 1 13.1788 27.6054 0.000356598 0.00013692 -4.45077 
250 1 11.1097 28.9873 0.000356597 1.1602e-05 -4.44992 
251 1 12.4898 31.0588 0.000356597 2.85216e-06 -4.45 
657 1 11.4529 27.2588 5.28004 0.000155869 -4.45039 
658 1 10.765 30.7145 5.28004 9.66577e-06 -4.44982 
659 1 12.8343 29.3317 5.28004 3.66674e-05 -4.45032 
661 1 13.1788 27.6054 3.52015 0.00013692 -4.45077 
662 1 11.1097 28.9873 3.52015 1.1602e-05 -4.44992 
663 1 12.4898 31.0588 3.52015 2.85216e-06 -4.45 
252 1 10.0743 34.1666 1.76025 1.44862e-06 -4.45002 
253 1 12.1449 32.7855 1.76025 1.22852e-06 -4.44992 
256 1 11.7998 34.5119 0.000356602 2.14586e-06 -4.44997 
255 1 10.4198 32.4407 0.000356599 5.04877e-06 -4.44992 
261 1 9.72893 35.8923 0.000356604 2.23187e-07 -4.45006 
664 1 10.0743 34.1666 5.28004 1.44862e-06 -4.45002 
665 1 12.1449 32.7855 5.28004 1.22852e-06 -4.44992 
668 1 11.7998 34.5119 3.52015 2.14586e-06 -4.44997 
667 1 10.4198 32.4407 3.52015 5.04877e-06 -4.44992 
673 1 9.72893 35.8923 3.52015 2.23187e-07 -4.45006 
161 1 9.03763 39.3433 0.000356607 2.53619e-05 -4.44974 
158 1 9.38338 37.6179 1.76025 3.06624e-06 -4.44998 
573 1 9.03763 39.3433 3.52015 2.53619e-05 -4.44974 
570 1 9.38338 37.6179 5.28004 3.06624e-06 -4.44998 
258 1 11.4546 36.238 1.76025 3.32201e-06 -4.45007 
259 1 10.7634 39.6888 1.76025 8.54792e-06 -4.44996 
260 1 12.835 38.3097 1.76025 1.23879e-05 -4.45016 
262 1 11.1093 37.9637 0.000356606 3.60376e-06 -4.45012 
263 1 13.1799 36.5832 0.000356605 2.21295e-06 -4.45001 
264 1 12.4898 40.0355 0.000356607 2.57534e-05 -4.45031 
670 1 11.4546 36.238 5.28004 3.32201e-06 -4.45007 
671 1 10.7634 39.6888 5.28004 8.54792e-06 -4.44996 
672 1 12.835 38.3097 5.28004 1.23879e-05 -4.45016 
674 1 11.1093 37.9637 3.52015 3.60376e-06 -4.45012 
675 1 13.1799 36.5832 3.52015 2.21295e-06 -4.45001 
676 1 12.4898 40.0355 3.52015 2.57534e-05 -4.45031 
265 1 10.07 43.1391 1.76025 0.000421313 -4.44881 
266 1 12.1434 41.7596 1.76025 3.57942e-05 -4.45019 
270 1 11.7951 43.4814 0.000356605 0.000435493 -4.44942 
268 1 10.4168 41.4132 0.000356607 0.000107701 -4.44945 
677 1 10.07 43.1391 5.28004 0.000421313 -4.44881 
678 1 12.1434 41.7596 5.28004 3.57942e-05 -4.45019 
682 1 11.7951 43.4814 3.52015 0.000435493 -4.44942 
680 1 10.4168 41.4132 3.52015 0.000107701 -4.44945 
171 1 9.39164 46.6121 1.76025 0.00460208 -4.45352 
174 1 9.07304 48.3468 0.000356602 0.0397618 -4.45441 
583 1 9.39164 46.6121 5.28004 0.00460208 -4.45352 
586 1 9.07304 48.3468 3.52015 0.0397618 -4.45441 
271 1 11.4475 45.2036 1.76025 0.00216299 -4.44738 
272 1 10.7963 48.6958 1.76025 0.0578328 -4.42455 
273 1 12.8219 47.263 1.76025 0.0138524 -4.43869 
274 1 9.7258 44.8709 0.000356603 0.000668487 -4.44928 
275 1 13.1748 45.545 0.000356603 0.00177965 -4.44699 
276 1 11.1087 46.9336 0.000356602 0.00665338 -4.44261 
277 1 12.4553 49.0095 0.000356601 0.0703573 -4.41288 
683 1 11.4475 45.2036 5.28004 0.00216299 -4.44738 
684 1 10.7963 48.6958 5.28004 0.0578328 -4.42455 
685 1 12.8219 47.263 5.28004 0.0138524 -4.43869 
686 1 9.7258 44.8709 3.52015 0.000668487 -4.44928 
687 1 13.1748 45.545 3.52015 0.00177965 -4.44699 
688 1 11.1087 46.9336 3.52015 0.00665338 -4.44261 
689 1 12.4553 49.0095 3.52015 0.0703573 -4.41288 
278 1 9.98011 52.6614 1.76025 7.57212 -4.25236 
279 1 12.0717 50.8903 1.76025 0.350512 -4.36423 
282 1 11.8043 52.8057 0.000356606 2.07254 -4.38715 
281 1 10.4882 50.5198 0.000356602 0.550367 -4.31945 
690 1 9.98011 52.6614 5.28004 7.57212 -4.25236 
691 1 12.0717 50.8903 5.28004 0.350512 -4.36423 
694 1 11.8043 52.8057 3.52015 2.07254 -4.38715 
693 1 10.4882 50.5198 3.52015 0.550367 -4.31945 
284 1 10.5058 55.1029 0.000356609 1.09567 -4.25168 
285 1 12.0849 54.7164 1.76025 0.573807 -4.33399 
286 1 12.4779 56.5964 0.000356607 0.0744259 -4.41419 
287 1 10.814 56.9115 1.76025 0.0518117 -4.4243 
290 1 9.09101 57.2562 0.000356608 0.0276133 -4.45634 
696 1 10.5058 55.1029 3.52015 1.09567 -4.25168 
697 1 12.0849 54.7164 5.28004 0.573807 -4.33399 
698 1 12.4779 56.5964 3.52015 0.0744259 -4.41419 
699 1 10.814 56.9115 5.28004 0.0518118 -4.4243 
702 1 9.09101 57.2562 3.52015 0.0276133 -4.45634 
291 1 11.1295 58.6683 0.000356605 0.00640935 -4.44291 