ITEM: TIMESTEP
0
ITEM: NUMBER OF ATOMS
824
ITEM: BOX BOUNDS pp pp pp
6.1200000000000002e-04 1.7944855000000000e+01
1.1609000000000000e-02 7.8281586000000004e+01
-3.6800000000000000e-04 7.0391589999999997e+00
ITEM: ATOMS id type x y z c_csym c_PE 
414 1 3.19495 1.04299 5.28003 1.20762e-06 -4.44992 
2 1 3.19495 1.04299 1.76027 1.20776e-06 -4.44992 
413 1 1.46987 1.38768 3.52015 6.06282e-06 -4.44988 
1 1 1.46987 1.38768 0.000384 6.06292e-06 -4.44988 
415 1 3.53979 2.76981 3.52015 4.9756e-06 -4.45003 
3 1 3.53979 2.76981 0.000384 4.9757e-06 -4.45003 
416 1 1.81509 3.11404 5.28003 1.01707e-05 -4.44981 
4 1 1.81509 3.11404 1.76027 1.01708e-05 -4.44981 
419 1 0.090106 3.45828 3.52015 2.55266e-05 -4.44973 
7 1 0.090106 3.45828 0.000384 2.55267e-05 -4.44973 
526 1 3.88421 4.49694 5.28003 5.34658e-05 -4.4504 
114 1 3.88421 4.49694 1.76027 5.34659e-05 -4.4504 
420 1 2.15949 4.84154 3.52015 1.73705e-05 -4.44998 
8 1 2.15949 4.84154 0.000384 1.73706e-05 -4.44998 
517 1 6.6453 0.352984 5.28003 3.48055e-06 -4.45007 
105 1 6.6453 0.352984 1.76027 3.48069e-06 -4.45007 
516 1 4.91998 0.69823 3.52015 2.20153e-06 -4.45001 
104 1 4.91998 0.69823 0.000384 2.20163e-06 -4.45001 
624 1 8.71648 1.73288 5.28003 3.06287e-06 -4.44998 
212 1 8.71648 1.73288 1.76027 3.06301e-06 -4.44998 
518 1 6.99062 2.07873 3.52015 3.57598e-06 -4.45012 
106 1 6.99062 2.07873 0.000384 3.57608e-06 -4.45012 
521 1 5.26491 2.42466 5.28003 1.24035e-05 -4.45016 
109 1 5.26491 2.42466 1.76027 1.24037e-05 -4.45016 
520 1 7.33643 3.80375 5.28003 8.5532e-06 -4.44996 
108 1 7.33643 3.80375 1.76027 8.55334e-06 -4.44996 
519 1 5.61011 4.15046 3.52015 2.59802e-05 -4.45031 
107 1 5.61011 4.15046 0.000384 2.59803e-05 -4.45031 
423 1 0.435563 5.18452 5.28003 6.90131e-05 -4.44941 
11 1 0.435563 5.18452 1.76027 6.90132e-05 -4.44941 
527 1 4.22878 6.22284 3.52015 0.000163008 -4.45083 
115 1 4.22878 6.22284 0.000384 0.000163008 -4.45083 
422 1 2.50246 6.5702 5.28003 0.000236686 -4.45055 
10 1 2.50246 6.5702 1.76027 0.000236686 -4.45055 
424 1 0.779532 6.91361 3.52015 9.03036e-05 -4.44945 
12 1 0.779532 6.91361 0.000384 9.03037e-05 -4.44945 
421 1 2.84536 8.29731 3.52015 0.000944995 -4.45097 
9 1 2.84536 8.29731 0.000384 0.000944995 -4.45097 
425 1 1.121 8.64727 5.28003 0.000953413 -4.4509 
13 1 1.121 8.64727 1.76027 0.000953413 -4.4509 
522 1 7.68306 5.52819 3.52015 0.00010778 -4.44945 
110 1 7.68306 5.52819 0.000384 0.00010778 -4.44945 
525 1 5.95652 5.87452 5.28003 3.57262e-05 -4.45019 
113 1 5.95652 5.87452 1.76027 3.57263e-05 -4.45019 
524 1 8.02985 7.25409 5.28003 0.000421648 -4.4488 
112 1 8.02985 7.25409 1.76027 0.000421648 -4.44881 
523 1 6.30479 7.59635 3.52015 0.000435523 -4.44942 
111 1 6.30479 7.59635 0.000384 0.000435523 -4.44942 
528 1 4.57507 7.94446 5.28003 0.00018108 -4.45036 
116 1 4.57507 7.94446 1.76027 0.00018108 -4.45036 
634 1 8.37406 8.98579 3.52015 0.000668468 -4.44928 
222 1 8.37406 8.98579 0.000384 0.000668468 -4.44928 
530 1 6.65233 9.31851 5.28003 0.00216301 -4.44738 
118 1 6.65233 9.31851 1.76027 0.00216301 -4.44738 
532 1 4.92507 9.65992 3.52015 0.00177863 -4.44698 
120 1 4.92507 9.65992 0.000384 0.00177863 -4.44698 
427 1 3.19403 10.0177 5.28003 0.00119135 -4.44963 
15 1 3.19403 10.0177 1.76027 0.00119135 -4.44963 
429 1 1.46347 10.3804 3.52015 0.00554506 -4.45461 
17 1 1.46347 10.3804 0.000384 0.00554506 -4.45461 
426 1 3.56226 11.7298 3.52015 0.00746012 -4.44483 
14 1 3.56226 11.7298 0.000384 0.00746012 -4.44521 
431 1 1.81425 12.0947 5.28003 0.0158414 -4.45428 
19 1 1.81425 12.0947 1.76027 0.0158414 -4.45428 
430 1 0.054694 12.4617 3.52015 0.039795 -4.45314 
18 1 0.054694 12.4617 0.000384 0.039795 -4.45344 
539 1 3.94819 13.4513 5.28003 0.0917895 -4.42744 
127 1 3.94819 13.4513 1.76027 0.0917895 -4.42744 
433 1 2.18109 13.7599 3.52015 0.0492078 -4.40226 
21 1 2.18109 13.7599 0.000384 0.0492078 -4.44917 
436 1 0.35646 14.1415 5.28003 0.491978 -4.36053 
24 1 0.35646 14.1415 1.76027 0.491978 -4.36053 
638 1 8.70822 10.727 5.28003 0.00461255 -4.45352 
226 1 8.70822 10.727 1.76027 0.00461255 -4.45352 
529 1 6.99121 11.0485 3.52015 0.00666024 -4.44239 
117 1 6.99121 11.0485 0.000384 0.00666024 -4.44239 
533 1 5.27799 11.3779 5.28003 0.0138866 -4.43756 
121 1 5.27799 11.3779 1.76027 0.0138866 -4.43756 
531 1 7.30354 12.8107 5.28003 0.0578424 -4.42875 
119 1 7.30354 12.8107 1.76027 0.0578424 -4.42875 
534 1 5.64455 13.1244 3.52015 0.0703103 -4.40997 
122 1 5.64455 13.1244 0.000384 0.0703103 -4.40775 
535 1 7.61165 14.6347 3.52015 4.57913 -4.19408 
123 1 7.61165 14.6347 0.000384 4.57913 -4.1927 
537 1 4.33199 15.1484 3.52015 15.185 -3.86494 
125 1 4.33199 15.1484 0.000384 14.7637 -3.99739 
435 1 2.47296 15.3946 5.28003 10.8746 -3.99511 
23 1 2.47296 15.3946 1.76027 10.8746 -3.99511 
434 1 0.716157 15.7347 3.52015 13.0349 -3.82268 
22 1 0.716157 15.7347 0.000384 9.0193 -3.96236 
25 1 2.7829 16.9155 0.000384 59.1549 -2.93037 
538 1 6.0282 15.0052 5.28003 11.6596 -3.95506 
126 1 6.0282 15.0052 1.76027 11.6596 -3.95506 
536 1 8.11975 16.7763 5.28003 36.6798 -2.98221 
124 1 8.11975 16.7763 1.76027 36.6798 -2.98221 
437 1 2.7829 23.4155 3.52015 28.9239 -3.41792 
541 1 4.49784 23.4167 5.28003 22.4095 -3.61674 
129 1 4.49784 23.4167 1.76027 22.4095 -3.61674 
540 1 6.29558 23.4206 3.52015 27.4892 -3.31705 
128 1 6.29558 23.4206 0.000384 33.012 -3.2739 
441 1 0.666716 24.5549 3.52015 15.5755 -3.68223 
29 1 0.666716 24.5549 0.000384 19.8458 -3.50325 
438 1 2.44635 24.9227 5.28003 10.7849 -4.11104 
26 1 2.44635 24.9227 1.76027 10.7849 -4.11104 
443 1 4.31851 25.185 3.52015 0.508598 -4.38927 
31 1 4.31851 25.185 0.000384 5.22945 -4.28915 
750 1 0.340746 26.1831 5.28003 4.89135 -4.28632 
338 1 0.340746 26.1831 1.76027 4.89135 -4.28633 
442 1 2.15143 26.5528 3.52015 0.0377454 -4.45672 
30 1 2.15143 26.5528 0.000384 0.0377454 -4.40846 
440 1 3.92278 26.8724 5.28003 0.0865006 -4.44111 
28 1 3.92278 26.8724 1.76027 0.0865006 -4.44111 
753 1 0.036723 27.8711 3.52015 0.0276065 -4.45726 
341 1 0.036723 27.8711 0.000384 0.0276065 -4.45692 
439 1 1.79235 28.2293 5.28003 0.0140503 -4.45515 
27 1 1.79235 28.2293 1.76027 0.0140503 -4.45515 
444 1 3.53543 28.5926 3.52015 0.00454814 -4.44841 
32 1 3.53543 28.5926 0.000384 0.00454814 -4.44809 
542 1 6.01503 25.3313 5.28003 4.60974 -4.25385 
130 1 6.01503 25.3313 1.76027 4.60974 -4.25385 
546 1 7.5941 25.7177 3.52015 10.1155 -4.11815 
134 1 7.5941 25.7177 0.000384 10.1155 -4.11943 
545 1 5.62196 27.2113 3.52015 0.0744865 -4.41457 
133 1 5.62196 27.2113 0.000384 0.0744865 -4.41684 
543 1 7.28582 27.5264 5.28003 0.0518371 -4.42384 
131 1 7.28582 27.5264 1.76027 0.0518371 -4.42385 
548 1 5.25335 28.9501 5.28003 0.0119168 -4.43936 
136 1 5.25335 28.9501 1.76027 0.0119168 -4.43936 
552 1 6.97036 29.2831 3.52015 0.0063901 -4.4429 
140 1 6.97036 29.2831 0.000384 0.0063901 -4.4429 
448 1 1.44255 29.9487 3.52015 0.00422914 -4.45396 
36 1 1.44255 29.9487 0.000384 0.00422914 -4.45396 
446 1 3.17071 30.3088 5.28003 0.00111851 -4.4497 
34 1 3.17071 30.3088 1.76027 0.00111851 -4.4497 
445 1 1.09985 31.6827 5.28003 0.000609409 -4.45051 
33 1 1.09985 31.6827 1.76027 0.000609409 -4.45051 
450 1 2.82342 32.0312 3.52015 0.000768399 -4.45075 
38 1 2.82342 32.0312 0.000384 0.000768399 -4.45075 
454 1 0.757736 33.4157 3.52015 8.25524e-05 -4.44936 
42 1 0.757736 33.4157 0.000384 8.25525e-05 -4.44936 
451 1 2.48073 33.7589 5.28003 0.000154119 -4.4504 
39 1 2.48073 33.7589 1.76027 0.000154119 -4.4504 
455 1 4.20665 34.1055 3.52015 0.000133677 -4.45077 
43 1 4.20665 34.1055 0.000384 0.000133678 -4.45077 
550 1 8.68884 29.6049 5.28003 0.00318051 -4.45301 
138 1 8.68884 29.6049 1.76027 0.00318051 -4.45301 
449 1 4.90097 30.6662 3.52015 0.00111971 -4.44774 
37 1 4.90097 30.6662 0.000384 0.00111971 -4.44774 
549 1 6.62965 31.0098 5.28003 0.00176439 -4.44783 
137 1 6.62965 31.0098 1.76027 0.00176439 -4.44783 
553 1 8.35274 31.3442 3.52015 0.000681757 -4.44924 
141 1 8.35274 31.3442 0.000384 0.000681757 -4.44924 
447 1 4.55232 32.3828 5.28003 0.000169591 -4.45055 
35 1 4.55232 32.3828 1.76027 0.000169591 -4.45055 
554 1 6.28186 32.7311 3.52015 0.000275366 -4.44973 
142 1 6.28186 32.7311 0.000384 0.000275366 -4.44973 
551 1 8.00749 33.0745 5.28003 0.00035865 -4.44894 
139 1 8.00749 33.0745 1.76027 0.000358651 -4.44894 
763 1 0.413341 35.1441 5.28003 6.06855e-05 -4.44946 
351 1 0.413341 35.1441 1.76027 6.06856e-05 -4.44946 
456 1 2.13752 35.4873 3.52015 1.17006e-05 -4.44991 
44 1 2.13752 35.4873 0.000384 1.17007e-05 -4.44991 
453 1 3.86219 35.8317 5.28003 3.70465e-05 -4.45031 
41 1 3.86219 35.8317 1.76027 3.70466e-05 -4.45031 
766 1 0.067774 36.8701 3.52015 1.9533e-05 -4.4498 
354 1 0.067774 36.8701 0.000384 1.95331e-05 -4.4498 
452 1 1.79291 37.2145 5.28003 9.10729e-06 -4.44983 
40 1 1.79291 37.2145 1.76027 9.10743e-06 -4.44983 
457 1 3.51769 37.5588 3.52015 3.2079e-06 -4.45 
45 1 3.51769 37.5588 0.000384 3.208e-06 -4.45 
461 1 1.44762 38.9408 3.52015 5.7797e-06 -4.44992 
49 1 1.44762 38.9408 0.000384 5.7798e-06 -4.44992 
555 1 5.93399 34.4533 5.28003 2.78773e-05 -4.45027 
143 1 5.93399 34.4533 1.76027 2.78774e-05 -4.45027 
558 1 7.66053 34.7999 3.52015 7.06974e-05 -4.44958 
146 1 7.66053 34.7999 0.000384 7.06975e-05 -4.44958 
559 1 5.58788 36.1779 3.52015 2.20202e-05 -4.45029 
147 1 5.58788 36.1779 0.000384 2.20203e-05 -4.45029 
556 1 7.31405 36.5244 5.28003 4.4056e-06 -4.45001 
144 1 7.31405 36.5244 1.76027 4.40574e-06 -4.45001 
561 1 5.24276 37.9039 5.28003 8.6239e-06 -4.45012 
149 1 5.24276 37.9039 1.76027 8.62404e-06 -4.45012 
565 1 6.96837 38.2496 3.52015 3.9842e-06 -4.45011 
153 1 6.96837 38.2496 0.000384 3.9843e-06 -4.45011 
563 1 8.69419 38.5955 5.28003 2.0997e-06 -4.45 
151 1 8.69419 38.5955 1.76027 2.09984e-06 -4.45 
459 1 3.17277 39.2856 5.28003 1.4974e-06 -4.44992 
47 1 3.17277 39.2856 1.76027 1.49754e-06 -4.44992 
458 1 1.10221 40.6666 5.28003 1.29564e-06 -4.45001 
46 1 1.10221 40.6666 1.76027 1.29578e-06 -4.45001 
462 1 2.82762 41.0119 3.52015 2.42344e-06 -4.44997 
50 1 2.82762 41.0119 0.000384 2.42354e-06 -4.44997 
467 1 0.756801 42.3923 3.52015 2.04238e-07 -4.45006 
55 1 0.756801 42.3923 0.000384 2.04338e-07 -4.45007 
464 1 2.48243 42.738 5.28003 3.47063e-06 -4.45007 
52 1 2.48243 42.738 1.76027 3.47077e-06 -4.45007 
469 1 4.20776 43.0832 3.52015 2.0588e-06 -4.45 
57 1 4.20776 43.0832 0.000384 2.0589e-06 -4.45 
463 1 4.89781 39.6303 3.52015 1.6451e-06 -4.44999 
51 1 4.89781 39.6303 0.000384 1.6452e-06 -4.44999 
562 1 6.6231 39.9755 5.28003 2.8482e-06 -4.45005 
150 1 6.6231 39.9755 1.76027 2.84834e-06 -4.45005 
567 1 8.34869 40.321 3.52015 4.518e-07 -4.45005 
155 1 8.34869 40.321 0.000384 4.519e-07 -4.45005 
460 1 4.55278 41.3568 5.28003 5.2904e-08 -4.44995 
48 1 4.55278 41.3568 1.76027 5.3044e-08 -4.44995 
566 1 6.27791 41.7016 3.52015 2.0913e-06 -4.44996 
154 1 6.27791 41.7016 0.000384 2.0914e-06 -4.44996 
564 1 8.00329 42.0468 5.28003 1.6359e-06 -4.45001 
152 1 8.00329 42.0468 1.76027 1.63604e-06 -4.45001 
568 1 5.93279 43.428 5.28003 1.0159e-06 -4.44992 
156 1 5.93279 43.428 1.76027 1.01604e-06 -4.44992 
572 1 7.65787 43.7727 3.52015 5.7267e-06 -4.44989 
160 1 7.65787 43.7727 0.000384 5.7268e-06 -4.44989 
776 1 0.411255 44.1179 5.28003 2.90972e-06 -4.44998 
364 1 0.411255 44.1179 1.76027 2.90986e-06 -4.44998 
468 1 2.13712 44.4637 3.52015 3.44385e-06 -4.45011 
56 1 2.13712 44.4637 0.000384 3.44395e-06 -4.45011 
466 1 3.86283 44.8096 5.28003 1.18479e-05 -4.45016 
54 1 3.86283 44.8096 1.76027 1.1848e-05 -4.45016 
779 1 0.065509 45.8433 3.52015 2.41831e-05 -4.44973 
367 1 0.065509 45.8433 0.000384 2.41832e-05 -4.44973 
465 1 1.7913 46.1887 5.28003 8.73988e-06 -4.44996 
53 1 1.7913 46.1887 1.76027 8.74002e-06 -4.44996 
470 1 3.51762 46.5354 3.52015 2.49117e-05 -4.45031 
58 1 3.51762 46.5354 0.000384 2.49118e-05 -4.45031 
474 1 1.44467 47.9132 3.52015 0.000105599 -4.44946 
62 1 1.44467 47.9132 0.000384 0.000105599 -4.44946 
472 1 3.17122 48.2595 5.28003 3.66149e-05 -4.45019 
60 1 3.17122 48.2595 1.76027 3.6615e-05 -4.45019 
571 1 5.58795 45.1548 3.52015 5.3258e-06 -4.45003 
159 1 5.58795 45.1548 0.000384 5.3259e-06 -4.45003 
569 1 7.31265 45.499 5.28003 1.05993e-05 -4.4498 
157 1 7.31265 45.499 1.76027 1.05994e-05 -4.44981 
574 1 5.24353 46.8819 5.28003 5.33311e-05 -4.4504 
162 1 5.24353 46.8819 1.76027 5.33312e-05 -4.4504 
578 1 6.96825 47.2265 3.52015 1.72117e-05 -4.44998 
166 1 6.96825 47.2265 0.000384 1.72118e-05 -4.44998 
576 1 8.69217 47.5695 5.28003 6.96734e-05 -4.44942 
164 1 8.69217 47.5695 1.76027 6.96735e-05 -4.44942 
475 1 4.89895 48.6078 3.52015 0.000163109 -4.45083 
63 1 4.89895 48.6078 0.000384 0.000163109 -4.45083 
471 1 1.09788 49.6391 5.28003 0.000421816 -4.44881 
59 1 1.09788 49.6391 1.76027 0.000421816 -4.44881 
476 1 2.82294 49.9813 3.52015 0.00043833 -4.44942 
64 1 2.82294 49.9813 0.000384 0.00043833 -4.44942 
480 1 0.753674 51.3708 3.52015 0.000668152 -4.44928 
68 1 0.753674 51.3708 0.000384 0.000668152 -4.44928 
477 1 2.4754 51.7035 5.28003 0.00216006 -4.44738 
65 1 2.4754 51.7035 1.76027 0.00216006 -4.44738 
481 1 4.20267 52.0449 3.52015 0.00178217 -4.44699 
69 1 4.20267 52.0449 0.000384 0.00178217 -4.44699 
789 1 0.419519 53.112 5.28003 0.00461314 -4.45352 
377 1 0.419519 53.112 1.76027 0.00461314 -4.45352 
482 1 2.13652 53.4335 3.52015 0.00666015 -4.44261 
70 1 2.13652 53.4335 0.000384 0.00666015 -4.44261 
479 1 3.84974 53.7629 5.28003 0.0138837 -4.43868 
67 1 3.84974 53.7629 1.76027 0.0138837 -4.43868 
575 1 6.62527 48.9552 5.28003 0.000239487 -4.45055 
163 1 6.62527 48.9552 1.76027 0.000239488 -4.45055 
579 1 8.3482 49.2986 3.52015 9.04449e-05 -4.44945 
167 1 8.3482 49.2986 0.000384 9.0445e-05 -4.44945 
473 1 4.55266 50.3294 5.28003 0.000181233 -4.45036 
61 1 4.55266 50.3294 1.76027 0.000181233 -4.45036 
580 1 6.28238 50.6823 3.52015 0.000945581 -4.45096 
168 1 6.28238 50.6823 0.000384 0.000945581 -4.45096 
577 1 8.00674 51.0323 5.28003 0.000957454 -4.4509 
165 1 8.00674 51.0323 1.76027 0.000957454 -4.4509 
581 1 5.9337 52.4027 5.28003 0.00118917 -4.44963 
169 1 5.9337 52.4027 1.76027 0.00118917 -4.44963 
584 1 7.66427 52.7654 3.52015 0.00554176 -4.45461 
172 1 7.66427 52.7654 0.000384 0.00554176 -4.45461 
792 1 0.100921 54.8467 3.52015 0.0397891 -4.45441 
380 1 0.100921 54.8467 0.000384 0.0397891 -4.45441 
478 1 1.8242 55.1957 5.28003 0.0578446 -4.42455 
66 1 1.8242 55.1957 1.76027 0.0578446 -4.42455 
483 1 3.48318 55.5094 3.52015 0.0703126 -4.41287 
71 1 3.48318 55.5094 0.000384 0.0703126 -4.41287 
487 1 1.51608 57.0197 3.52015 0.550343 -4.31946 
75 1 1.51608 57.0197 0.000384 0.550343 -4.31946 
485 1 3.09954 57.3902 5.28003 0.350588 -4.36424 
73 1 3.09954 57.3902 1.76027 0.350588 -4.36424 
585 1 5.56547 54.1148 3.52015 0.00746336 -4.44686 
173 1 5.56547 54.1148 0.000384 0.00746337 -4.44686 
582 1 7.31349 54.4797 5.28003 0.0158439 -4.45531 
170 1 7.31349 54.4797 1.76027 0.0158439 -4.45531 
587 1 5.17955 55.8363 5.28003 0.0917836 -4.44545 
175 1 5.17955 55.8363 1.76027 0.0917836 -4.44545 
591 1 6.94665 56.1449 3.52015 0.0492064 -4.44256 
179 1 6.94665 56.1449 0.000384 0.0492064 -4.44256 
589 1 8.77128 56.5265 5.28003 0.491961 -4.3577 
177 1 8.77128 56.5265 1.76027 0.491961 -4.35771 
489 1 4.79574 57.5334 3.52015 0.483586 -4.40833 
77 1 4.79574 57.5334 0.000384 0.483586 -4.40834 
588 1 6.65478 57.7796 5.28003 3.42114 -4.32232 
176 1 6.65478 57.7796 1.76027 3.42114 -4.32232 
590 1 8.41158 58.1197 3.52015 8.39095 -4.10703 
178 1 8.41158 58.1197 0.000384 8.39095 -4.10703 
484 1 1.00798 59.1613 5.28003 7.57256 -4.25241 
72 1 1.00798 59.1613 1.76027 7.57256 -4.25241 
488 1 2.83215 59.3055 3.52015 2.07246 -4.38719 
76 1 2.83215 59.3055 0.000384 2.07246 -4.38719 
491 1 3.1127 61.2163 5.28003 0.573763 -4.334 
79 1 3.1127 61.2163 1.76027 0.573763 -4.334 
490 1 1.53363 61.6027 3.52015 1.09549 -4.25169 
78 1 1.53363 61.6027 0.000384 1.09549 -4.25169 
492 1 3.50577 63.0962 3.52015 0.0743266 -4.4142 
80 1 3.50577 63.0962 0.000384 0.0743266 -4.4142 
493 1 1.84191 63.4114 5.28003 0.0518121 -4.4243 
81 1 1.84191 63.4114 1.76027 0.0518121 -4.4243 
592 1 6.34483 59.3005 3.52015 6.42144 -4.04073 
180 1 6.34483 59.3005 0.000384 6.42144 -4.04074 
486 1 4.62989 59.3017 5.28003 1.09988 -4.42269 
74 1 4.62989 59.3017 1.76027 1.09988 -4.42269 
700 1 8.46102 60.4399 3.52015 9.11331 -4.10737 
288 1 8.46102 60.4399 0.000384 9.11331 -4.10737 
594 1 6.68139 60.8077 5.28003 3.55838 -4.31312 
182 1 6.68139 60.8077 1.76027 3.55838 -4.31313 
593 1 4.80923 61.07 3.52015 0.508597 -4.40111 
181 1 4.80923 61.07 0.000384 0.508597 -4.40111 
701 1 8.78699 62.0681 5.28003 0.863959 -4.33514 
289 1 8.78699 62.0681 1.76027 0.863959 -4.33514 
595 1 6.97631 62.4378 3.52015 0.037734 -4.44791 
183 1 6.97631 62.4378 0.000384 0.037734 -4.44791 
598 1 5.20496 62.7574 5.28003 0.0865265 -4.44614 
186 1 5.20496 62.7574 1.76027 0.0865265 -4.44614 
496 1 0.118892 63.756 3.52015 0.027665 -4.45633 
84 1 0.118892 63.756 0.000384 0.027665 -4.45633 
603 1 3.87439 64.8351 5.28003 0.0119467 -4.43936 
191 1 3.87439 64.8351 1.76027 0.0119467 -4.43937 
497 1 2.15738 65.1681 3.52015 0.00640346 -4.44291 
85 1 2.15738 65.1681 0.000384 0.00640346 -4.44291 
500 1 0.438895 65.4899 5.28003 0.00317121 -4.45302 
88 1 0.438895 65.4899 1.76027 0.00317121 -4.45302 
604 1 4.22677 66.5511 3.52015 0.00110444 -4.44774 
192 1 4.22677 66.5511 0.000384 0.00110444 -4.44774 
499 1 2.49809 66.8948 5.28003 0.00176752 -4.44783 
87 1 2.49809 66.8948 1.76027 0.00176752 -4.44783 
501 1 0.774994 67.2292 3.52015 0.000682317 -4.44923 
89 1 0.774994 67.2292 0.000384 0.000682317 -4.44923 
597 1 7.33539 64.1142 5.28003 0.014094 -4.45608 
185 1 7.33539 64.1142 1.76027 0.014094 -4.45608 
596 1 5.5923 64.4776 3.52015 0.00455237 -4.44842 
184 1 5.5923 64.4776 0.000384 0.00455237 -4.44842 
599 1 7.68519 65.8337 3.52015 0.00421308 -4.45397 
187 1 7.68519 65.8337 0.000384 0.00421308 -4.45397 
602 1 5.95702 66.1937 5.28003 0.00112675 -4.4497 
190 1 5.95702 66.1937 1.76027 0.00112675 -4.4497 
601 1 8.02789 67.5677 5.28003 0.000605453 -4.45051 
189 1 8.02789 67.5677 1.76027 0.000605453 -4.45051 
600 1 6.30431 67.9162 3.52015 0.000762977 -4.45075 
188 1 6.30431 67.9162 0.000384 0.000762977 -4.45075 
605 1 4.57542 68.2678 5.28003 0.000165556 -4.45055 
193 1 4.57542 68.2678 1.76027 0.000165556 -4.45055 
498 1 2.84587 68.6161 3.52015 0.000277477 -4.44973 
86 1 2.84587 68.6161 0.000384 0.000277477 -4.44973 
502 1 1.12024 68.9595 5.28003 0.000359064 -4.44894 
90 1 1.12024 68.9595 1.76027 0.000359064 -4.44894 
504 1 3.19374 70.3383 5.28003 2.84405e-05 -4.45027 
92 1 3.19374 70.3383 1.76027 2.84406e-05 -4.45027 
506 1 1.46721 70.6849 3.52015 7.00509e-05 -4.44957 
94 1 1.46721 70.6849 0.000384 7.0051e-05 -4.44957 
503 1 3.53985 72.0629 3.52015 2.20681e-05 -4.45029 
91 1 3.53985 72.0629 0.000384 2.20682e-05 -4.4503 
508 1 1.81368 72.4094 5.28003 4.74064e-06 -4.45 
96 1 1.81368 72.4094 1.76027 4.74078e-06 -4.45 
507 1 0.087841 72.755 3.52015 1.71823e-05 -4.4498 
95 1 0.087841 72.755 0.000384 1.71824e-05 -4.44981 
711 1 8.37 69.3007 3.52015 8.17121e-05 -4.44936 
299 1 8.37 69.3007 0.000384 8.17122e-05 -4.44936 
607 1 6.64701 69.6439 5.28003 0.000152796 -4.45039 
195 1 6.64701 69.6439 1.76027 0.000152797 -4.45039 
609 1 4.92109 69.9904 3.52015 0.000139977 -4.45076 
197 1 4.92109 69.9904 0.000384 0.000139977 -4.45076 
715 1 8.7144 71.0291 5.28003 6.1423e-05 -4.44944 
303 1 8.7144 71.0291 1.76027 6.14231e-05 -4.44945 
606 1 6.99022 71.3723 3.52015 1.13344e-05 -4.44991 
194 1 6.99022 71.3723 0.000384 1.13345e-05 -4.44991 
610 1 5.26555 71.7167 5.28003 3.67803e-05 -4.45032 
198 1 5.26555 71.7167 1.76027 3.67804e-05 -4.45032 
608 1 7.33483 73.0995 5.28003 9.3575e-06 -4.44982 
196 1 7.33483 73.0995 1.76027 9.35764e-06 -4.44983 
616 1 3.88497 73.7889 5.28003 8.1513e-06 -4.45012 
204 1 3.88497 73.7889 1.76027 8.15144e-06 -4.45012 
510 1 2.15936 74.1346 3.52015 3.67091e-06 -4.45011 
98 1 2.15936 74.1346 0.000384 3.67101e-06 -4.45011 
513 1 0.433545 74.4804 5.28003 1.3065e-06 -4.45002 
101 1 0.433545 74.4804 1.76027 1.30664e-06 -4.45002 
614 1 4.22992 75.5153 3.52015 1.4319e-06 -4.44999 
202 1 4.22992 75.5153 0.000384 1.432e-06 -4.44999 
512 1 2.50463 75.8605 5.28003 2.3413e-06 -4.45005 
100 1 2.50463 75.8605 1.76027 2.34144e-06 -4.45005 
511 1 0.779046 76.206 3.52015 4.03718e-07 -4.45005 
99 1 0.779046 76.206 0.000384 4.03818e-07 -4.45005 
514 1 2.84982 77.5866 3.52015 1.90817e-06 -4.44996 
102 1 2.84982 77.5866 0.000384 1.90827e-06 -4.44996 
515 1 1.12445 77.9318 5.28003 1.53123e-06 -4.44999 
103 1 1.12445 77.9318 1.76027 1.53137e-06 -4.44999 
611 1 5.61005 73.4438 3.52015 3.3613e-06 -4.44999 
199 1 5.61005 73.4438 0.000384 3.3614e-06 -4.44999 
612 1 7.68012 74.8258 3.52015 6.1448e-06 -4.44992 
200 1 7.68012 74.8258 0.000384 6.1449e-06 -4.44992 
615 1 5.95497 75.1705 5.28003 9.51904e-07 -4.44992 
203 1 5.95497 75.1705 1.76027 9.52044e-07 -4.44992 
613 1 8.02553 76.5516 5.28003 1.40992e-06 -4.45002 
201 1 8.02553 76.5516 1.76027 1.41006e-06 -4.45002 
617 1 6.30012 76.8969 3.52015 2.74349e-06 -4.44997 
205 1 6.30012 76.8969 0.000384 2.74359e-06 -4.44997 
618 1 4.57496 77.2417 5.28003 5.2812e-08 -4.44995 
206 1 4.57496 77.2417 1.76027 5.2952e-08 -4.44995 
623 1 8.37094 78.2773 3.52015 2.06338e-07 -4.45006 
211 1 8.37094 78.2773 0.000384 2.06438e-07 -4.45007 
620 1 12.1671 1.04299 5.28003 1.43032e-06 -4.44992 
208 1 12.1671 1.04299 1.76027 1.43046e-06 -4.44992 
619 1 10.442 1.38768 3.52015 6.1739e-06 -4.44989 
207 1 10.442 1.38768 0.000384 6.174e-06 -4.44989 
621 1 12.5119 2.76981 3.52015 4.9079e-06 -4.45003 
209 1 12.5119 2.76981 0.000384 4.908e-06 -4.45003 
622 1 10.7872 3.11404 5.28003 1.01542e-05 -4.44981 
210 1 10.7872 3.11404 1.76027 1.01543e-05 -4.44981 
625 1 9.06223 3.45828 3.52015 2.56008e-05 -4.44974 
213 1 9.06223 3.45828 0.000384 2.56009e-05 -4.44974 
732 1 12.8563 4.49694 5.28003 5.35574e-05 -4.45039 
320 1 12.8563 4.49694 1.76027 5.35575e-05 -4.45039 
626 1 11.1316 4.84154 3.52015 1.71928e-05 -4.44998 
214 1 11.1316 4.84154 0.000384 1.71929e-05 -4.44998 
723 1 15.6174 0.352984 5.28003 3.66535e-06 -4.45007 
311 1 15.6174 0.352984 1.76027 3.66549e-06 -4.45007 
722 1 13.8921 0.69823 3.52015 2.15423e-06 -4.45 
310 1 13.8921 0.69823 0.000384 2.15433e-06 -4.45 
418 1 17.6886 1.73288 5.28003 3.17725e-06 -4.44998 
6 1 17.6886 1.73288 1.76027 3.17739e-06 -4.44998 
724 1 15.9627 2.07873 3.52015 3.98418e-06 -4.45012 
312 1 15.9627 2.07873 0.000384 3.98428e-06 -4.45012 
727 1 14.237 2.42466 5.28003 1.29118e-05 -4.45016 
315 1 14.237 2.42466 1.76027 1.2912e-05 -4.45016 
726 1 16.3086 3.80375 5.28003 8.56324e-06 -4.44996 
314 1 16.3086 3.80375 1.76027 8.56338e-06 -4.44996 
725 1 14.5822 4.15046 3.52015 2.64199e-05 -4.45031 
313 1 14.5822 4.15046 0.000384 2.642e-05 -4.45031 
629 1 9.40769 5.18452 5.28003 6.93816e-05 -4.44941 
217 1 9.40769 5.18452 1.76027 6.93817e-05 -4.44941 
733 1 13.2009 6.22284 3.52015 0.000162532 -4.45082 
321 1 13.2009 6.22284 0.000384 0.000162532 -4.45082 
628 1 11.4746 6.5702 5.28003 0.000235824 -4.45055 
216 1 11.4746 6.5702 1.76027 0.000235824 -4.45055 
630 1 9.75165 6.91361 3.52015 9.02325e-05 -4.44945 
218 1 9.75165 6.91361 0.000384 9.02326e-05 -4.44945 
627 1 11.8175 8.29731 3.52015 0.000943646 -4.45097 
215 1 11.8175 8.29731 0.000384 0.000943646 -4.45097 
631 1 10.0931 8.64727 5.28003 0.000955058 -4.4509 
219 1 10.0931 8.64727 1.76027 0.000955058 -4.4509 
728 1 16.6552 5.52819 3.52015 0.000108946 -4.44946 
316 1 16.6552 5.52819 0.000384 0.000108947 -4.44946 
731 1 14.9286 5.87452 5.28003 3.5325e-05 -4.45019 
319 1 14.9286 5.87452 1.76027 3.53251e-05 -4.45019 
730 1 17.002 7.25409 5.28003 0.000424261 -4.44881 
318 1 17.002 7.25409 1.76027 0.000424261 -4.44881 
729 1 15.2769 7.59635 3.52015 0.000433646 -4.44943 
317 1 15.2769 7.59635 0.000384 0.000433646 -4.44943 
734 1 13.5472 7.94446 5.28003 0.000181391 -4.45035 
322 1 13.5472 7.94446 1.76027 0.000181391 -4.45035 
428 1 17.3462 8.98579 3.52015 0.000671702 -4.44928 
16 1 17.3462 8.98579 0.000384 0.000671702 -4.44928 
736 1 15.6245 9.31851 5.28003 0.00217452 -4.44738 
324 1 15.6245 9.31851 1.76027 0.00217452 -4.44738 
738 1 13.8972 9.65992 3.52015 0.00177768 -4.44698 
326 1 13.8972 9.65992 0.000384 0.00177768 -4.44698 
633 1 12.1662 10.0177 5.28003 0.00118355 -4.44963 
221 1 12.1662 10.0177 1.76027 0.00118355 -4.44963 
635 1 10.4356 10.3804 3.52015 0.00554406 -4.45461 
223 1 10.4356 10.3804 0.000384 0.00554406 -4.45462 
632 1 12.5344 11.7298 3.52015 0.00746418 -4.44483 
220 1 12.5344 11.7298 0.000384 0.00746418 -4.44521 
637 1 10.7864 12.0947 5.28003 0.0158377 -4.45428 
225 1 10.7864 12.0947 1.76027 0.0158377 -4.45428 
636 1 9.02682 12.4617 3.52015 0.0397925 -4.45314 
224 1 9.02682 12.4617 0.000384 0.0397925 -4.45343 
745 1 12.9203 13.4513 5.28003 0.091766 -4.42744 
333 1 12.9203 13.4513 1.76027 0.091766 -4.42744 
639 1 11.1532 13.7599 3.52015 0.0491781 -4.40226 
227 1 11.1532 13.7599 0.000384 0.0491781 -4.44916 
642 1 9.32858 14.1415 5.28003 0.491962 -4.36054 
230 1 9.32858 14.1415 1.76027 0.491963 -4.36054 
432 1 17.6803 10.727 5.28003 0.00460728 -4.45352 
20 1 17.6803 10.727 1.76027 0.00460728 -4.45353 
735 1 15.9633 11.0485 3.52015 0.00664839 -4.44238 
323 1 15.9633 11.0485 0.000384 0.00664839 -4.44238 
739 1 14.2501 11.3779 5.28003 0.0138823 -4.43756 
327 1 14.2501 11.3779 1.76027 0.0138823 -4.43756 
737 1 16.2757 12.8107 5.28003 0.0577941 -4.42874 
325 1 16.2757 12.8107 1.76027 0.0577941 -4.42875 
740 1 14.6167 13.1244 3.52015 0.0703041 -4.40998 
328 1 14.6167 13.1244 0.000384 0.0703041 -4.40777 
741 1 16.5838 14.6347 3.52015 4.57926 -4.19409 
329 1 16.5838 14.6347 0.000384 4.57926 -4.1927 
743 1 13.3041 15.1484 3.52015 15.185 -3.86494 
331 1 13.3041 15.1484 0.000384 14.7638 -3.9974 
641 1 11.4451 15.3946 5.28003 10.8746 -3.99511 
229 1 11.4451 15.3946 1.76027 10.8746 -3.99511 
640 1 9.68828 15.7347 3.52015 13.035 -3.82268 
228 1 9.68828 15.7347 0.000384 9.01931 -3.96236 
231 1 11.755 16.9155 0.000384 59.1548 -2.93037 
744 1 15.0003 15.0052 5.28003 11.6599 -3.95507 
332 1 15.0003 15.0052 1.76027 11.6599 -3.95507 
742 1 17.0919 16.7763 5.28003 36.6798 -2.98222 
330 1 17.0919 16.7763 1.76027 36.6798 -2.98221 
643 1 11.755 23.4155 3.52015 28.9244 -3.41791 
747 1 13.47 23.4167 5.28003 22.4088 -3.61674 
335 1 13.47 23.4167 1.76027 22.4088 -3.61674 
746 1 15.2677 23.4206 3.52015 27.4891 -3.31706 
334 1 15.2677 23.4206 0.000384 33.0119 -3.27391 
647 1 9.63884 24.5549 3.52015 15.5752 -3.68222 
235 1 9.63884 24.5549 0.000384 19.8457 -3.50324 
644 1 11.4185 24.9227 5.28003 10.7849 -4.11104 
232 1 11.4185 24.9227 1.76027 10.7849 -4.11104 
649 1 13.2906 25.185 3.52015 0.508344 -4.38929 
237 1 13.2906 25.185 0.000384 5.22942 -4.28918 
544 1 9.31287 26.1831 5.28003 4.89148 -4.28632 
132 1 9.31287 26.1831 1.76027 4.89148 -4.28632 
648 1 11.1236 26.5528 3.52015 0.0377661 -4.45673 
236 1 11.1236 26.5528 0.000384 0.0377661 -4.40846 
646 1 12.8949 26.8724 5.28003 0.0864575 -4.44111 
234 1 12.8949 26.8724 1.76027 0.0864575 -4.44111 
547 1 9.00884 27.8711 3.52015 0.0276234 -4.45725 
135 1 9.00884 27.8711 0.000384 0.0276234 -4.45692 
645 1 10.7645 28.2293 5.28003 0.0140537 -4.45515 
233 1 10.7645 28.2293 1.76027 0.0140537 -4.45515 
650 1 12.5076 28.5926 3.52015 0.00454255 -4.44841 
238 1 12.5076 28.5926 0.000384 0.00454255 -4.44809 
748 1 14.9872 25.3313 5.28003 4.60968 -4.25384 
336 1 14.9872 25.3313 1.76027 4.60968 -4.25384 
752 1 16.5662 25.7177 3.52015 10.1155 -4.11814 
340 1 16.5662 25.7177 0.000384 10.1155 -4.11942 
751 1 14.5941 27.2113 3.52015 0.0744995 -4.41456 
339 1 14.5941 27.2113 0.000384 0.0744995 -4.41683 
749 1 16.2579 27.5264 5.28003 0.0519037 -4.42384 
337 1 16.2579 27.5264 1.76027 0.0519037 -4.42384 
754 1 14.2255 28.9501 5.28003 0.0119252 -4.43936 
342 1 14.2255 28.9501 1.76027 0.0119252 -4.43936 
758 1 15.9425 29.2831 3.52015 0.00639817 -4.4429 
346 1 15.9425 29.2831 0.000384 0.00639817 -4.4429 
654 1 10.4147 29.9487 3.52015 0.00423021 -4.45396 
242 1 10.4147 29.9487 0.000384 0.00423021 -4.45396 
652 1 12.1428 30.3088 5.28003 0.00112743 -4.44969 
240 1 12.1428 30.3088 1.76027 0.00112743 -4.44969 
651 1 10.072 31.6827 5.28003 0.000606686 -4.4505 
239 1 10.072 31.6827 1.76027 0.000606686 -4.4505 
656 1 11.7955 32.0312 3.52015 0.000772822 -4.45074 
244 1 11.7955 32.0312 0.000384 0.000772822 -4.45074 
660 1 9.72986 33.4157 3.52015 8.17655e-05 -4.44935 
248 1 9.72986 33.4157 0.000384 8.17656e-05 -4.44935 
657 1 11.4528 33.7589 5.28003 0.000156335 -4.4504 
245 1 11.4528 33.7589 1.76027 0.000156335 -4.4504 
661 1 13.1788 34.1055 3.52015 0.00013196 -4.45078 
249 1 13.1788 34.1055 0.000384 0.00013196 -4.45078 
756 1 17.661 29.6049 5.28003 0.00318348 -4.453 
344 1 17.661 29.6049 1.76027 0.00318348 -4.45301 
655 1 13.8731 30.6662 3.52015 0.00112158 -4.44775 
243 1 13.8731 30.6662 0.000384 0.00112158 -4.44775 
755 1 15.6018 31.0098 5.28003 0.00176724 -4.44784 
343 1 15.6018 31.0098 1.76027 0.00176724 -4.44784 
759 1 17.3249 31.3442 3.52015 0.000686988 -4.44923 
347 1 17.3249 31.3442 0.000384 0.000686988 -4.44923 
653 1 13.5244 32.3828 5.28003 0.00017191 -4.45056 
241 1 13.5244 32.3828 1.76027 0.00017191 -4.45056 
760 1 15.254 32.7311 3.52015 0.0002769 -4.44973 
348 1 15.254 32.7311 0.000384 0.0002769 -4.44973 
757 1 16.9796 33.0745 5.28003 0.0003584 -4.44893 
345 1 16.9796 33.0745 1.76027 0.0003584 -4.44894 
557 1 9.38546 35.1441 5.28003 6.11392e-05 -4.44945 
145 1 9.38546 35.1441 1.76027 6.11393e-05 -4.44945 
662 1 11.1096 35.4873 3.52015 1.17788e-05 -4.44991 
250 1 11.1096 35.4873 0.000384 1.17789e-05 -4.44991 
659 1 12.8343 35.8317 5.28003 3.688e-05 -4.45031 
247 1 12.8343 35.8317 1.76027 3.68801e-05 -4.45031 
560 1 9.0399 36.8701 3.52015 1.99438e-05 -4.4498 
148 1 9.0399 36.8701 0.000384 1.99439e-05 -4.4498 
658 1 10.765 37.2145 5.28003 8.9397e-06 -4.44983 
246 1 10.765 37.2145 1.76027 8.93984e-06 -4.44983 
663 1 12.4898 37.5588 3.52015 3.19e-06 -4.45001 
251 1 12.4898 37.5588 0.000384 3.1901e-06 -4.45001 
667 1 10.4197 38.9408 3.52015 5.4803e-06 -4.44992 
255 1 10.4197 38.9408 0.000384 5.4804e-06 -4.44992 
761 1 14.9061 34.4533 5.28003 2.813e-05 -4.45026 
349 1 14.9061 34.4533 1.76027 2.81301e-05 -4.45026 
764 1 16.6326 34.7999 3.52015 6.98988e-05 -4.44958 