ITEM: TIMESTEP
0
ITEM: NUMBER OF ATOMS
104
ITEM: BOX BOUNDS pp pp pp
-1.0000000000000000e-03 1.7948548687846600e+01
-1.0000000000000000e-03 1.7948548687846600e+01
-8.8000000000000000e-01 8.8000000000000000e-01
ITEM: ATOMS id type x y z 
1 1 2.07099 1.38066 0 
2 1 0 0 0 
53 2 0 0 0 
54 2 1.38066 2.07099 0 
55 2 3.45164 0.690329 0 
3 1 4.14197 2.76132 0 
4 1 0.690329 3.45164 0 
56 2 2.76132 4.14197 0 
5 1 2.76132 4.8323 0 
57 2 0.690329 5.52263 0 
58 2 4.14197 6.21296 0 
6 1 3.45164 8.28395 0 
7 1 1.38066 6.90329 0 
59 2 2.07099 7.59362 0 
8 1 2.22045e-16 8.97427 0 
9 1 2.07099 10.3549 0 
60 2 -2.22045e-16 8.97427 0 
61 2 3.45164 9.6646 0 
62 2 1.38066 11.0453 0 
10 1 4.14197 11.7356 0 
11 1 0.690329 12.4259 0 
63 2 2.76132 13.1162 0 
12 1 2.76132 13.8066 0 
64 2 0.690329 14.4969 0 
65 2 4.14197 15.1872 0 
13 1 1.38066 15.8776 0 
14 1 3.45164 17.2582 0 
66 2 2.07099 16.5679 0 
15 1 5.52263 0.690329 0 
16 1 7.59362 2.07099 0 
67 2 6.90329 1.38066 0 
17 1 6.21296 4.14197 0 
68 2 4.8323 2.76132 0 
69 2 8.28395 3.45164 0 
18 1 8.28395 5.52263 0 
19 1 4.8323 6.21296 0 
70 2 6.21296 4.8323 0 
20 1 6.90329 7.59362 0 
71 2 7.59362 6.90329 0 
72 2 5.52263 8.28395 0 
21 1 7.59362 11.0453 0 
22 1 5.52263 9.6646 0 
73 2 6.90329 10.3549 0 
23 1 6.21296 13.1162 0 
74 2 4.8323 11.7356 0 
75 2 8.28395 12.4259 0 
24 1 8.28395 14.4969 0 
25 1 4.8323 15.1872 0 
76 2 6.21296 13.8066 0 
26 1 6.90329 16.5679 0 
77 2 5.52263 17.2582 0 
78 2 7.59362 15.8776 0 
27 1 8.97427 -2.22045e-16 0 
28 1 11.0453 1.38066 0 
79 2 8.97427 2.22045e-16 0 
80 2 12.4259 0.690329 0 
81 2 10.3549 2.07099 0 
29 1 13.1162 2.76132 0 
30 1 9.6646 3.45164 0 
82 2 11.7356 4.14197 0 
31 1 11.7356 4.8323 0 
83 2 9.6646 5.52263 0 
84 2 13.1162 6.21296 0 
32 1 10.3549 6.90329 0 
33 1 12.4259 8.28395 0 
85 2 11.0453 7.59362 0 
34 1 11.0453 10.3549 0 
35 1 8.97427 8.97427 0 
86 2 8.97427 8.97427 0 
87 2 10.3549 11.0453 0 
88 2 12.4259 9.6646 0 
36 1 13.1162 11.7356 0 
37 1 9.6646 12.4259 0 
89 2 11.7356 13.1162 0 
38 1 11.7356 13.8066 0 
90 2 9.6646 14.4969 0 
91 2 13.1162 15.1872 0 
39 1 12.4259 17.2582 0 
40 1 10.3549 15.8776 0 
92 2 11.0453 16.5679 0 
41 1 16.5679 2.07099 0 
42 1 14.4969 0.690329 0 
93 2 15.8776 1.38066 0 
43 1 15.1872 4.14197 0 
94 2 13.8066 2.76132 0 
95 2 17.2582 3.45164 0 
44 1 17.2582 5.52263 0 
45 1 13.8066 6.21296 0 
96 2 15.1872 4.8323 0 
46 1 15.8776 7.59362 0 
97 2 14.4969 8.28395 0 
98 2 16.5679 6.90329 0 
47 1 14.4969 9.6646 0 
48 1 16.5679 11.0453 0 
99 2 15.8776 10.3549 0 
49 1 15.1872 13.1162 0 
100 2 13.8066 11.7356 0 
101 2 17.2582 12.4259 0 
50 1 17.2582 14.4969 0 
51 1 13.8066 15.1872 0 
102 2 15.1872 13.8066 0 
52 1 15.8776 16.5679 0 
103 2 16.5679 15.8776 0 
104 2 14.4969 17.2582 0 
