ITEM: TIMESTEP
0
ITEM: NUMBER OF ATOMS
824
ITEM: BOX BOUNDS pp pp pp
5.4074537871399335e-04 1.7944926451710437e+01
1.1324761370883729e-02 7.1781869990015423e+01
-3.9556560940948366e-04 7.0391866968282288e+00
ITEM: ATOMS id type x y z c_csym c_PE 
1 1 1.47219 1.3872 0.000357815 5.99207e-06 -4.44989 
2 1 3.19732 1.04256 1.76025 9.91558e-07 -4.44992 
3 1 3.54212 2.76926 0.000357208 5.02216e-06 -4.45004 
4 1 1.81737 3.11348 1.76025 9.19776e-06 -4.44982 
7 1 0.0923806 3.45771 0.000356723 2.45421e-05 -4.44974 
114 1 3.88658 4.49627 1.76025 5.15151e-05 -4.45041 
413 1 1.47219 1.3872 3.52015 5.99207e-06 -4.44989 
414 1 3.19732 1.04256 5.28004 9.91558e-07 -4.44992 
415 1 3.54212 2.76926 3.52015 5.02216e-06 -4.45004 
416 1 1.81737 3.11348 5.28004 9.19776e-06 -4.44982 
419 1 0.0923806 3.45771 3.52015 2.45421e-05 -4.44974 
526 1 3.88658 4.49627 5.28004 5.15151e-05 -4.45041 
8 1 2.16181 4.84088 0.000356689 1.72325e-05 -4.44998 
9 1 2.84781 8.29658 0.000357687 0.000946202 -4.45096 
10 1 2.50486 6.56947 1.76025 0.000234323 -4.45056 
11 1 0.437881 5.18392 1.76025 6.76822e-05 -4.44941 
12 1 0.78195 6.91302 0.000357026 9.16219e-05 -4.44946 
13 1 1.12345 8.64668 1.76025 0.000967609 -4.45091 
115 1 4.23119 6.22211 0.000356805 0.000160673 -4.45084 
420 1 2.16181 4.84088 3.52015 1.72325e-05 -4.44998 
421 1 2.84781 8.29658 3.52015 0.000946202 -4.45096 
422 1 2.50486 6.56947 5.28004 0.000234323 -4.45056 
423 1 0.437881 5.18392 5.28004 6.76822e-05 -4.44941 
424 1 0.78195 6.91302 3.52015 9.16219e-05 -4.44946 
425 1 1.12345 8.64668 5.28004 0.000967609 -4.45091 
527 1 4.23119 6.22211 3.52015 0.000160673 -4.45084 
14 1 3.56497 11.729 0.000359633 0.00762527 -4.44676 
15 1 3.19661 10.0169 1.76025 0.00117485 -4.44961 
19 1 1.81689 12.0937 1.76025 0.0158455 -4.45525 
17 1 1.46596 10.3797 0.000358816 0.00558715 -4.45462 
18 1 0.0571144 12.461 0.000360126 0.040034 -4.45435 
127 1 3.95077 13.4507 1.76025 0.091766 -4.44541 
426 1 3.56497 11.729 3.52015 0.00762527 -4.44676 
427 1 3.19661 10.0169 5.28004 0.00117485 -4.44961 
431 1 1.81689 12.0937 5.28004 0.0158455 -4.45525 
429 1 1.46596 10.3797 3.52015 0.00558715 -4.45462 
430 1 0.0571144 12.461 3.52015 0.040034 -4.45435 
539 1 3.95077 13.4507 5.28004 0.091766 -4.44541 
21 1 2.18406 13.7586 0.000364247 0.0499924 -4.44238 
22 1 0.71977 15.7325 0.000361241 8.35718 -4.10709 
23 1 2.47577 15.3938 1.76024 3.41218 -4.32279 
24 1 0.358955 14.1404 1.76025 0.477245 -4.35907 
25 1 2.78374 16.9157 0.000378068 6.41782 -4.04104 
125 1 4.33395 15.1487 0.000361974 0.481828 -4.40878 
433 1 2.18406 13.7586 3.52016 0.0499924 -4.44238 
434 1 0.71977 15.7325 3.52015 8.35718 -4.10709 
435 1 2.47577 15.3938 5.28003 3.41218 -4.32279 
436 1 0.358955 14.1404 5.28004 0.477245 -4.35907 
437 1 2.78374 16.9157 3.52017 6.41782 -4.04104 
537 1 4.33395 15.1487 3.52015 0.481828 -4.40878 
26 1 2.44561 18.4225 1.76024 3.56686 -4.31274 
27 1 1.79121 21.7297 1.76025 0.013968 -4.45611 
28 1 3.92157 20.3728 1.76025 0.0859797 -4.44613 
29 1 0.664628 18.053 0.000357421 9.14856 -4.10757 
30 1 2.15013 20.0525 0.000361488 0.0373166 -4.44823 
31 1 4.31833 18.6857 0.000359801 0.50958 -4.40061 
32 1 3.5339 22.093 0.000357673 0.00441629 -4.44849 
438 1 2.44561 18.4225 5.28003 3.56686 -4.31274 
439 1 1.79121 21.7297 5.28004 0.013968 -4.45611 
440 1 3.92157 20.3728 5.28004 0.0859797 -4.44613 
441 1 0.664628 18.053 3.52015 9.14856 -4.10757 
442 1 2.15013 20.0525 3.52015 0.0373166 -4.44823 
443 1 4.31833 18.6857 3.52015 0.50958 -4.40061 
444 1 3.5339 22.093 3.52015 0.00441629 -4.44849 
338 1 0.340374 19.6836 1.76025 0.88808 -4.33441 
341 1 0.0358757 21.3721 0.000357018 0.0268269 -4.45649 
750 1 0.340374 19.6836 5.28004 0.88808 -4.33441 
753 1 0.0358757 21.3721 3.52015 0.0268269 -4.45649 
33 1 1.09793 25.1835 1.76025 0.000598028 -4.45048 
34 1 3.16903 23.8094 1.76025 0.00111581 -4.44971 
38 1 2.82138 25.5319 0.000357783 0.000762485 -4.45074 
36 1 1.44109 23.4494 0.000357572 0.0041533 -4.45392 
42 1 0.755385 26.9164 0.000358127 8.11247e-05 -4.44935 
445 1 1.09793 25.1835 5.28004 0.000598028 -4.45048 
446 1 3.16903 23.8094 5.28004 0.00111581 -4.44971 
450 1 2.82138 25.5319 3.52015 0.000762485 -4.45074 
448 1 1.44109 23.4494 3.52015 0.0041533 -4.45392 
454 1 0.755385 26.9164 3.52015 8.11247e-05 -4.44935 
39 1 2.47832 27.2595 1.76025 0.000157838 -4.45039 
40 1 1.79016 30.715 1.76025 9.37276e-06 -4.44982 
41 1 3.85951 29.3323 1.76025 3.7664e-05 -4.45031 
43 1 4.20419 27.6061 0.000358481 0.000139175 -4.45077 
44 1 2.13489 28.9879 0.000359074 1.14354e-05 -4.44991 
45 1 3.51493 31.0592 0.000359956 2.93402e-06 -4.44999 
451 1 2.47832 27.2595 5.28004 0.000157838 -4.45039 
452 1 1.79016 30.715 5.28004 9.37276e-06 -4.44982 
453 1 3.85951 29.3323 5.28004 3.7664e-05 -4.45031 
455 1 4.20419 27.6061 3.52015 0.000139175 -4.45077 
456 1 2.13489 28.9879 3.52015 1.14354e-05 -4.44991 
457 1 3.51493 31.0592 3.52015 2.93402e-06 -4.44999 
354 1 0.0650618 30.3705 0.000359549 1.84089e-05 -4.44979 
351 1 0.410739 28.6447 1.76025 6.19876e-05 -4.44945 
766 1 0.0650618 30.3705 3.52015 1.84089e-05 -4.44979 
763 1 0.410739 28.6447 5.28004 6.19876e-05 -4.44945 
46 1 1.09952 34.1667 1.76025 1.3897e-06 -4.45001 
47 1 3.17002 32.7858 1.76025 1.20413e-06 -4.44992 
50 1 2.82499 34.5119 0.000359984 2.25866e-06 -4.44997 
49 1 1.44486 32.4411 0.000360435 5.34132e-06 -4.44991 
55 1 0.754238 35.8922 0.000359055 1.82078e-07 -4.45005 
458 1 1.09952 34.1667 5.28004 1.3897e-06 -4.45001 
459 1 3.17002 32.7858 5.28004 1.20413e-06 -4.44992 
462 1 2.82499 34.5119 3.52015 2.25866e-06 -4.44997 
461 1 1.44486 32.4411 3.52015 5.34132e-06 -4.44991 
467 1 0.754238 35.8922 3.52015 1.82078e-07 -4.45005 
52 1 2.4799 36.2378 1.76025 3.05455e-06 -4.45006 
53 1 1.78886 39.6885 1.76025 8.54586e-06 -4.44995 
54 1 3.86036 38.3094 1.76025 1.13691e-05 -4.45016 
56 1 2.13465 37.9635 0.000357533 3.34982e-06 -4.45011 
57 1 4.20526 36.5831 0.000358705 2.26533e-06 -4.45 
58 1 3.51511 40.0351 0.000356581 2.41886e-05 -4.45031 
464 1 2.4799 36.2378 5.28004 3.05455e-06 -4.45006 
465 1 1.78886 39.6885 5.28004 8.54586e-06 -4.44995 
466 1 3.86036 38.3094 5.28004 1.13691e-05 -4.45016 
468 1 2.13465 37.9635 3.52015 3.34982e-06 -4.45011 
469 1 4.20526 36.5831 3.52015 2.26533e-06 -4.45 
470 1 3.51511 40.0351 3.52015 2.41886e-05 -4.45031 
367 1 0.063092 39.343 0.000356595 2.45483e-05 -4.44974 
364 1 0.40879 37.6176 1.76025 3.23506e-06 -4.44998 
779 1 0.063092 39.343 3.52015 2.45483e-05 -4.44974 
776 1 0.40879 37.6176 5.28004 3.23506e-06 -4.44998 
59 1 1.09531 43.1388 1.76025 0.00041998 -4.44881 
60 1 3.16867 41.7592 1.76025 3.66636e-05 -4.45019 
64 1 2.82039 43.481 0.000356656 0.000440252 -4.44941 
62 1 1.44215 41.4129 0.000356043 0.000105511 -4.44945 
471 1 1.09531 43.1388 5.28004 0.00041998 -4.44881 
472 1 3.16867 41.7592 5.28004 3.66636e-05 -4.45019 
476 1 2.82039 43.481 3.52015 0.000440252 -4.44941 
474 1 1.44215 41.4129 3.52015 0.000105511 -4.44945 
65 1 2.47292 45.2032 1.76025 0.00215195 -4.44738 
66 1 1.82188 48.6956 1.76025 0.0579369 -4.4247 
67 1 3.84716 47.2627 1.76025 0.0138449 -4.43866 
68 1 0.751158 44.8706 0.000357509 0.000664063 -4.44931 
69 1 4.20008 45.5444 0.000358028 0.00182395 -4.44696 
70 1 2.13412 46.9334 0.000358724 0.00658588 -4.44266 
71 1 3.48087 49.0095 0.000359604 0.0695556 -4.41291 
477 1 2.47292 45.2032 5.28004 0.00215195 -4.44738 
478 1 1.82188 48.6956 5.28004 0.0579369 -4.4247 
479 1 3.84716 47.2627 5.28004 0.0138449 -4.43866 
480 1 0.751158 44.8706 3.52015 0.000664063 -4.44931 
481 1 4.20008 45.5444 3.52015 0.00182395 -4.44696 
482 1 2.13412 46.9334 3.52015 0.00658588 -4.44266 
483 1 3.48087 49.0095 3.52015 0.0695556 -4.41291 
377 1 0.417063 46.6117 1.76025 0.00465841 -4.45357 
380 1 0.0983596 48.3463 0.000359758 0.0400406 -4.45434 
789 1 0.417063 46.6117 5.28004 0.00465841 -4.45357 
792 1 0.0983596 48.3463 3.52015 0.0400406 -4.45434 
72 1 1.00646 52.6476 1.76025 7.36771 -4.25156 
73 1 3.09777 50.8901 1.76025 0.34326 -4.3656 
76 1 2.83039 52.8065 0.000357611 2.09339 -4.3864 
75 1 1.51373 50.5196 0.000359214 0.534597 -4.32284 
484 1 1.00646 52.6476 5.28004 7.36771 -4.25156 
485 1 3.09777 50.8901 5.28004 0.34326 -4.3656 
488 1 2.83039 52.8065 3.52015 2.09339 -4.3864 
487 1 1.51373 50.5196 3.52015 0.534597 -4.32284 
78 1 1.53391 55.1058 0.000356084 1.13934 -4.24851 
79 1 3.11304 54.7181 1.76025 0.589726 -4.33218 
80 1 3.50686 56.5977 0.000356873 0.074262 -4.4143 
81 1 1.84263 56.9131 1.76025 0.0513055 -4.4244 
84 1 0.119599 57.2574 0.000357291 0.0268298 -4.45649 
490 1 1.53391 55.1058 3.52015 1.13934 -4.24851 
491 1 3.11304 54.7181 5.28004 0.589726 -4.33218 
492 1 3.50686 56.5977 3.52015 0.074262 -4.4143 
493 1 1.84263 56.9131 5.28004 0.0513055 -4.4244 
496 1 0.119599 57.2574 3.52015 0.0268298 -4.45649 
85 1 2.15861 58.6694 0.000357287 0.00636715 -4.44295 
86 1 2.84796 62.1171 0.00035846 0.000273511 -4.44976 
87 1 2.49975 60.3958 1.76025 0.00175404 -4.44786 
88 1 0.440054 58.9911 1.76025 0.00312957 -4.45299 
89 1 0.776658 60.7303 0.000357865 0.000690031 -4.44923 
90 1 1.12238 62.4605 1.76025 0.00035601 -4.44894 
191 1 3.8758 58.3362 1.76025 0.0118327 -4.43942 
192 1 4.22847 60.0521 0.000357932 0.00109432 -4.4478 
497 1 2.15861 58.6694 3.52015 0.00636715 -4.44295 
498 1 2.84796 62.1171 3.52015 0.000273511 -4.44976 
499 1 2.49975 60.3958 5.28004 0.00175404 -4.44786 
500 1 0.440054 58.9911 5.28004 0.00312957 -4.45299 
501 1 0.776658 60.7303 3.52015 0.000690031 -4.44923 
502 1 1.12238 62.4605 5.28004 0.00035601 -4.44894 
603 1 3.8758 58.3362 5.28004 0.0118327 -4.43942 
604 1 4.22847 60.0521 3.52015 0.00109432 -4.4478 
91 1 3.54248 65.5637 0.000359164 2.40359e-05 -4.45029 
92 1 3.19617 63.8393 1.76025 2.74488e-05 -4.45028 
96 1 1.81626 65.9102 1.76025 5.57516e-06 -4.45001 
94 1 1.46966 64.1859 0.000358817 7.26615e-05 -4.44958 
95 1 0.0904114 66.2558 0.00035968 1.83716e-05 -4.44979 
204 1 3.88764 67.2895 1.76025 9.76601e-06 -4.45012 
503 1 3.54248 65.5637 3.52015 2.40359e-05 -4.45029 
504 1 3.19617 63.8393 5.28004 2.74488e-05 -4.45028 
508 1 1.81626 65.9102 5.28004 5.57516e-06 -4.45001 
506 1 1.46966 64.1859 3.52015 7.26615e-05 -4.44958 
507 1 0.0904114 66.2558 3.52015 1.83716e-05 -4.44979 
616 1 3.88764 67.2895 5.28004 9.76601e-06 -4.45012 
98 1 2.16198 67.6353 0.000359884 3.50131e-06 -4.45011 
99 1 0.781631 69.7064 0.000359908 4.16623e-07 -4.45005 
100 1 2.50724 69.3609 1.76025 3.49396e-06 -4.45005 
101 1 0.436146 67.9811 1.76025 2.00735e-06 -4.45 
102 1 2.85233 71.0869 0.000359281 2.0004e-06 -4.44996 
103 1 1.12691 71.432 1.76025 1.95791e-06 -4.45 
202 1 4.23255 69.0158 0.000360065 1.57696e-06 -4.44999 
510 1 2.16198 67.6353 3.52015 3.50131e-06 -4.45011 
511 1 0.781631 69.7064 3.52015 4.16623e-07 -4.45005 
512 1 2.50724 69.3609 5.28004 3.49396e-06 -4.45005 
513 1 0.436146 67.9811 5.28004 2.00735e-06 -4.45 
514 1 2.85233 71.0869 3.52015 2.0004e-06 -4.44996 
515 1 1.12691 71.432 5.28004 1.95791e-06 -4.45 
614 1 4.23255 69.0158 3.52015 1.57696e-06 -4.44999 
104 1 4.92241 0.697819 0.000358614 2.26816e-06 -4.45 
105 1 6.64776 0.352563 1.76025 3.05782e-06 -4.45006 
106 1 6.99301 2.07819 0.000357461 3.34673e-06 -4.45011 
107 1 5.61255 4.14984 0.000356709 2.41766e-05 -4.45031 
108 1 7.33881 3.80317 1.76025 8.54691e-06 -4.44995 
109 1 5.26731 2.4241 1.76025 1.13845e-05 -4.45016 
516 1 4.92241 0.697819 3.52015 2.26816e-06 -4.45 
517 1 6.64776 0.352563 5.28004 3.05782e-06 -4.45006 
518 1 6.99301 2.07819 3.52015 3.34673e-06 -4.45011 
519 1 5.61255 4.14984 3.52015 2.41766e-05 -4.45031 
520 1 7.33881 3.80317 5.28004 8.54691e-06 -4.44995 
521 1 5.26731 2.4241 5.28004 1.13845e-05 -4.45016 
212 1 8.71888 1.73236 1.76025 3.24551e-06 -4.44998 
624 1 8.71888 1.73236 5.28004 3.24551e-06 -4.44998 
110 1 7.68552 5.52763 0.000356308 0.000105517 -4.44945 
111 1 6.30727 7.59569 0.000357065 0.000440271 -4.44941 
112 1 8.03236 7.25355 1.76025 0.000419856 -4.44881 
113 1 5.959 5.87389 1.76025 3.667e-05 -4.45019 
116 1 4.57752 7.94367 1.76025 0.000183119 -4.45034 
522 1 7.68552 5.52763 3.52015 0.000105517 -4.44945 
523 1 6.30727 7.59569 3.52015 0.000440271 -4.44941 
524 1 8.03236 7.25355 5.28004 0.000419856 -4.44881 
525 1 5.959 5.87389 5.28004 3.667e-05 -4.45019 
528 1 4.57752 7.94367 5.28004 0.000183119 -4.45034 
117 1 6.99355 11.0481 0.000359092 0.00658568 -4.44266 
118 1 6.65475 9.31791 1.76025 0.00215214 -4.44738 
119 1 7.30579 12.8104 1.76025 0.0579337 -4.42471 
120 1 4.92758 9.65914 0.000358414 0.00182359 -4.44695 
121 1 5.2805 11.3774 1.76025 0.0138462 -4.43866 
122 1 5.64679 13.1242 0.000359829 0.0695424 -4.4129 
529 1 6.99355 11.0481 3.52015 0.00658568 -4.44266 
530 1 6.65475 9.31791 5.28004 0.00215214 -4.44738 
531 1 7.30579 12.8104 5.28004 0.0579337 -4.42471 
532 1 4.92758 9.65914 3.52015 0.00182359 -4.44695 
533 1 5.2805 11.3774 5.28004 0.0138462 -4.43866 
534 1 5.64679 13.1242 3.52015 0.0695424 -4.4129 
222 1 8.37651 8.98528 0.000357918 0.000663978 -4.44931 
226 1 8.7106 10.7265 1.76025 0.00465966 -4.45357 
634 1 8.37651 8.98528 3.52015 0.000663978 -4.44931 
638 1 8.7106 10.7265 5.28004 0.00465966 -4.45357 
123 1 7.61395 14.6343 0.000359274 0.534532 -4.32284 
124 1 8.12121 16.7622 1.76025 7.36725 -4.25156 
129 1 4.4991 16.9171 1.76025 1.10371 -4.4227 
126 1 6.02989 15.0049 1.76025 0.343232 -4.3656 
128 1 6.29728 16.9212 0.000357488 2.09341 -4.3864 
535 1 7.61395 14.6343 3.52015 0.534532 -4.32284 
536 1 8.12121 16.7622 5.28004 7.36725 -4.25156 
541 1 4.4991 16.9171 5.28004 1.10371 -4.4227 
538 1 6.02989 15.0049 5.28004 0.343232 -4.3656 
540 1 6.29728 16.9212 3.52015 2.09341 -4.3864 
130 1 6.01463 18.8328 1.76025 0.589754 -4.33218 
131 1 7.28504 21.0278 1.76025 0.0513069 -4.4244 
134 1 7.59376 19.2205 0.000356085 1.13943 -4.24849 
133 1 5.62081 20.7125 0.000356716 0.0742673 -4.4143 
542 1 6.01463 18.8328 5.28004 0.589754 -4.33218 
543 1 7.28504 21.0278 5.28004 0.0513069 -4.4244 
546 1 7.59376 19.2205 3.52015 1.13943 -4.24849 
545 1 5.62081 20.7125 3.52015 0.0742673 -4.4143 
136 1 5.25186 22.4509 1.76025 0.0118302 -4.43942 
137 1 6.62791 24.5105 1.76025 0.00175414 -4.44786 
138 1 8.68761 23.1058 1.76025 0.00312945 -4.45299 
139 1 8.00528 26.5752 1.76025 0.00035607 -4.44894 
140 1 6.96905 22.7841 0.000356976 0.00636593 -4.44295 
141 1 8.35101 24.845 0.000357551 0.000690037 -4.44923 
142 1 6.27971 26.2318 0.000358109 0.00027349 -4.44976 
35 1 4.5502 25.8835 1.76025 0.000166885 -4.45057 
37 1 4.8992 24.1668 0.000357596 0.00109443 -4.4478 
548 1 5.25186 22.4509 5.28004 0.0118302 -4.43942 
549 1 6.62791 24.5105 5.28004 0.00175414 -4.44786 
550 1 8.68761 23.1058 5.28004 0.00312945 -4.45299 
551 1 8.00528 26.5752 5.28004 0.00035607 -4.44894 
552 1 6.96905 22.7841 3.52015 0.00636593 -4.44295 
553 1 8.35101 24.845 3.52015 0.000690037 -4.44923 
554 1 6.27971 26.2318 3.52015 0.00027349 -4.44976 
447 1 4.5502 25.8835 5.28004 0.000166885 -4.45057 
449 1 4.8992 24.1668 3.52015 0.00109443 -4.4478 
143 1 5.93149 27.954 1.76025 2.74638e-05 -4.45028 
144 1 7.3114 30.025 1.76025 5.5794e-06 -4.45001 
147 1 5.58519 29.6784 0.000358977 2.40214e-05 -4.45029 
146 1 7.658 28.3006 0.000358565 7.26261e-05 -4.44958 
149 1 5.24002 31.4042 1.76025 9.78326e-06 -4.45012 
555 1 5.93149 27.954 5.28004 2.74638e-05 -4.45028 
556 1 7.3114 30.025 5.28004 5.5794e-06 -4.45001 
559 1 5.58519 29.6784 3.52015 2.40214e-05 -4.45029 
558 1 7.658 28.3006 3.52015 7.26261e-05 -4.44958 
561 1 5.24002 31.4042 5.28004 9.78326e-06 -4.45012 
51 1 4.89512 33.1305 0.00036006 1.57366e-06 -4.44999 
150 1 6.62042 33.4756 1.76025 3.47719e-06 -4.45005 
151 1 8.69152 32.0958 1.76025 1.99824e-06 -4.45 
152 1 8.00075 35.5467 1.76025 1.96621e-06 -4.45 
153 1 6.96568 31.75 0.00035991 3.51825e-06 -4.45011 
154 1 6.27534 35.2016 0.000359393 2.00544e-06 -4.44996 
155 1 8.34603 33.8212 0.000360105 4.13051e-07 -4.45005 
48 1 4.55017 34.8568 1.76025 2.82059e-08 -4.44995 
463 1 4.89512 33.1305 3.52015 1.57366e-06 -4.44999 
562 1 6.62042 33.4756 5.28004 3.47719e-06 -4.45005 
563 1 8.69152 32.0958 5.28004 1.99824e-06 -4.45 
564 1 8.00075 35.5467 5.28004 1.96621e-06 -4.45 
565 1 6.96568 31.75 3.52015 3.51825e-06 -4.45011 
566 1 6.27534 35.2016 3.52015 2.00544e-06 -4.44996 
567 1 8.34603 33.8212 3.52015 4.13051e-07 -4.45005 
460 1 4.55017 34.8568 5.28004 2.82059e-08 -4.44995 
156 1 5.93035 36.9278 1.76025 9.81559e-07 -4.44992 
157 1 7.31029 38.9988 1.76025 9.2222e-06 -4.44982 
160 1 7.65548 37.2725 0.000357863 5.97005e-06 -4.44989 
159 1 5.58554 38.6545 0.000357119 5.01423e-06 -4.45004 
162 1 5.24108 40.3816 1.76025 5.15265e-05 -4.45041 
568 1 5.93035 36.9278 5.28004 9.81559e-07 -4.44992 
569 1 7.31029 38.9988 5.28004 9.2222e-06 -4.44982 
572 1 7.65548 37.2725 3.52015 5.97005e-06 -4.44989 
571 1 5.58554 38.6545 3.52015 5.01423e-06 -4.45004 
574 1 5.24108 40.3816 5.28004 5.15265e-05 -4.45041 
63 1 4.89647 42.1074 0.000356432 0.000160649 -4.45084 
163 1 6.62281 42.4548 1.76025 0.00023427 -4.45056 
164 1 8.68979 41.0692 1.76025 6.76337e-05 -4.44941 
165 1 8.00422 44.532 1.76025 0.000967934 -4.45091 
166 1 6.96586 40.7262 0.000356352 1.72223e-05 -4.44998 
167 1 8.34572 42.7983 0.000356608 9.1678e-05 -4.44946 
168 1 6.27985 44.1819 0.000357282 0.000946424 -4.45096 
61 1 4.55015 43.829 1.76025 0.00018318 -4.45034 
475 1 4.89647 42.1074 3.52015 0.000160649 -4.45084 
575 1 6.62281 42.4548 5.28004 0.00023427 -4.45056 
576 1 8.68979 41.0692 5.28004 6.76337e-05 -4.44941 
577 1 8.00422 44.532 5.28004 0.000967934 -4.45091 
578 1 6.96586 40.7262 3.52015 1.72223e-05 -4.44998 
579 1 8.34572 42.7983 3.52015 9.1678e-05 -4.44946 
580 1 6.27985 44.1819 3.52015 0.000946424 -4.45096 
473 1 4.55015 43.829 5.28004 0.00018318 -4.45034 
169 1 5.93105 45.9021 1.76025 0.00117442 -4.44961 
170 1 7.31078 47.979 1.76025 0.0158536 -4.45525 
173 1 5.5627 47.6143 0.000359305 0.00762332 -4.44676 
172 1 7.66171 46.265 0.000358413 0.00558541 -4.45463 
175 1 5.1769 49.336 1.76025 0.0917546 -4.44541 
581 1 5.93105 45.9021 5.28004 0.00117442 -4.44961 
582 1 7.31078 47.979 5.28004 0.0158536 -4.45525 
585 1 5.5627 47.6143 3.52015 0.00762332 -4.44676 
584 1 7.66171 46.265 3.52015 0.00558541 -4.45463 
587 1 5.1769 49.336 5.28004 0.0917546 -4.44541 
77 1 4.79374 51.034 0.000361806 0.481748 -4.40877 
176 1 6.65189 51.2791 1.76024 3.41207 -4.32277 
177 1 8.76872 50.0257 1.76025 0.477312 -4.35908 
178 1 8.40789 51.6178 0.000361102 8.35711 -4.10709 
179 1 6.94361 49.6439 0.000363789 0.0499899 -4.44239 
180 1 6.34394 52.801 0.000377745 6.418 -4.04103 
74 1 4.62857 52.8024 1.76025 1.10368 -4.4227 
489 1 4.79374 51.034 3.52015 0.481748 -4.40877 
588 1 6.65189 51.2791 5.28003 3.41207 -4.32277 
589 1 8.76872 50.0257 5.28004 0.477312 -4.35908 
590 1 8.40789 51.6178 3.52015 8.35711 -4.10709 
591 1 6.94361 49.6439 3.52015 0.0499899 -4.44239 
592 1 6.34394 52.801 3.52017 6.418 -4.04103 
486 1 4.62857 52.8024 5.28004 1.10368 -4.4227 
181 1 4.80933 54.571 0.000359886 0.509641 -4.40062 
182 1 6.68206 54.3078 1.76024 3.56692 -4.31276 
183 1 6.97754 55.9378 0.000361701 0.0373225 -4.44822 
184 1 5.59376 57.9783 0.000357913 0.00441647 -4.44849 
185 1 7.33646 57.615 1.76025 0.0139674 -4.45611 
186 1 5.20609 56.2581 1.76025 0.0859865 -4.44613 
593 1 4.80933 54.571 3.52015 0.509641 -4.40062 
594 1 6.68206 54.3078 5.28003 3.56692 -4.31276 
595 1 6.97754 55.9378 3.52015 0.0373225 -4.44822 
596 1 5.59376 57.9783 3.52015 0.00441647 -4.44849 
597 1 7.33646 57.615 5.28004 0.0139674 -4.45611 
598 1 5.20609 56.2581 5.28004 0.0859865 -4.44613 
288 1 8.46303 53.9383 0.000357537 9.14842 -4.10756 
289 1 8.78729 55.5689 1.76025 0.888024 -4.33442 
700 1 8.46303 53.9383 3.52015 9.14842 -4.10756 
701 1 8.78729 55.5689 5.28004 0.888024 -4.33442 
187 1 7.68658 59.3347 0.000357902 0.00415374 -4.45392 
188 1 6.30629 61.4172 0.000358159 0.00076244 -4.45074 
189 1 8.02974 61.0688 1.76025 0.000598012 -4.45048 
190 1 5.95864 59.6946 1.76025 0.00111596 -4.44971 
193 1 4.57746 61.7687 1.76025 0.000166864 -4.45057 
599 1 7.68658 59.3347 3.52015 0.00415374 -4.45392 
600 1 6.30629 61.4172 3.52015 0.00076244 -4.45074 
601 1 8.02974 61.0688 5.28004 0.000598012 -4.45048 
602 1 5.95864 59.6946 5.28004 0.00111596 -4.44971 
605 1 4.57746 61.7687 5.28004 0.000166864 -4.45057 
299 1 8.37228 62.8017 0.000358533 8.1104e-05 -4.44935 
711 1 8.37228 62.8017 3.52015 8.1104e-05 -4.44935 
194 1 6.99278 64.8731 0.000359475 1.144e-05 -4.44991 
195 1 6.64935 63.1448 1.76025 0.000157866 -4.45039 
196 1 7.3375 66.6003 1.76025 9.35467e-06 -4.44982 
197 1 4.92348 63.4913 0.000358865 0.000139173 -4.45077 
198 1 5.26816 65.2175 1.76025 3.76454e-05 -4.45031 
199 1 5.61274 66.9445 0.000360157 2.93217e-06 -4.44999 
606 1 6.99278 64.8731 3.52015 1.144e-05 -4.44991 
607 1 6.64935 63.1448 5.28004 0.000157866 -4.45039 
608 1 7.3375 66.6003 5.28004 9.35467e-06 -4.44982 
609 1 4.92348 63.4913 3.52015 0.000139173 -4.45077 
610 1 5.26816 65.2175 5.28004 3.76454e-05 -4.45031 
611 1 5.61274 66.9445 3.52015 2.93217e-06 -4.44999 
303 1 8.71693 64.53 1.76025 6.20512e-05 -4.44945 
715 1 8.71693 64.53 5.28004 6.20512e-05 -4.44945 
200 1 7.68281 68.3263 0.000360444 5.3509e-06 -4.44991 
201 1 8.02815 70.052 1.76025 1.38639e-06 -4.45001 
206 1 4.57749 70.7421 1.76025 2.89422e-08 -4.44995 
203 1 5.95764 68.6711 1.76025 1.20224e-06 -4.44992 
205 1 6.30268 70.3972 0.000359927 2.25851e-06 -4.44997 
612 1 7.68281 68.3263 3.52015 5.3509e-06 -4.44991 
613 1 8.02815 70.052 5.28004 1.38639e-06 -4.45001 
618 1 4.57749 70.7421 5.28004 2.89422e-08 -4.44995 
615 1 5.95764 68.6711 5.28004 1.20224e-06 -4.44992 
617 1 6.30268 70.3972 3.52015 2.25851e-06 -4.44997 
211 1 8.37343 71.7775 0.000358837 1.82543e-07 -4.45005 
623 1 8.37343 71.7775 3.52015 1.82543e-07 -4.45005 
207 1 10.4444 1.3872 0.000357815 5.99207e-06 -4.44989 
208 1 12.1695 1.04256 1.76025 9.91558e-07 -4.44992 
209 1 12.5143 2.76926 0.000357208 5.02216e-06 -4.45004 
210 1 10.7896 3.11348 1.76025 9.19776e-06 -4.44982 
213 1 9.06457 3.45771 0.000356723 2.45421e-05 -4.44974 
320 1 12.8588 4.49627 1.76025 5.15151e-05 -4.45041 
619 1 10.4444 1.3872 3.52015 5.99207e-06 -4.44989 
620 1 12.1695 1.04256 5.28004 9.91558e-07 -4.44992 
621 1 12.5143 2.76926 3.52015 5.02216e-06 -4.45004 
622 1 10.7896 3.11348 5.28004 9.19776e-06 -4.44982 
625 1 9.06457 3.45771 3.52015 2.45421e-05 -4.44974 
732 1 12.8588 4.49627 5.28004 5.15151e-05 -4.45041 
214 1 11.134 4.84088 0.000356689 1.72325e-05 -4.44998 
215 1 11.82 8.29658 0.000357687 0.000946202 -4.45096 
216 1 11.4771 6.56947 1.76025 0.000234323 -4.45056 
217 1 9.41007 5.18392 1.76025 6.76822e-05 -4.44941 
218 1 9.75414 6.91302 0.000357026 9.16219e-05 -4.44946 
219 1 10.0956 8.64668 1.76025 0.000967609 -4.45091 
321 1 13.2034 6.22211 0.000356805 0.000160673 -4.45084 
626 1 11.134 4.84088 3.52015 1.72325e-05 -4.44998 
627 1 11.82 8.29658 3.52015 0.000946202 -4.45096 
628 1 11.4771 6.56947 5.28004 0.000234323 -4.45056 
629 1 9.41007 5.18392 5.28004 6.76822e-05 -4.44941 
630 1 9.75414 6.91302 3.52015 9.16219e-05 -4.44946 
631 1 10.0956 8.64668 5.28004 0.000967609 -4.45091 
733 1 13.2034 6.22211 3.52015 0.000160673 -4.45084 
220 1 12.5372 11.729 0.000359633 0.00762527 -4.44676 
221 1 12.1688 10.0169 1.76025 0.00117485 -4.44961 
225 1 10.7891 12.0937 1.76025 0.0158455 -4.45525 
223 1 10.4381 10.3797 0.000358816 0.00558715 -4.45462 
224 1 9.02931 12.461 0.000360126 0.040034 -4.45435 
333 1 12.923 13.4507 1.76025 0.091766 -4.44541 
632 1 12.5372 11.729 3.52015 0.00762527 -4.44676 
633 1 12.1688 10.0169 5.28004 0.00117485 -4.44961 
637 1 10.7891 12.0937 5.28004 0.0158455 -4.45525 
635 1 10.4381 10.3797 3.52015 0.00558715 -4.45462 
636 1 9.02931 12.461 3.52015 0.040034 -4.45435 
745 1 12.923 13.4507 5.28004 0.091766 -4.44541 
227 1 11.1562 13.7586 0.000364247 0.0499924 -4.44238 
228 1 9.69196 15.7325 0.000361241 8.35718 -4.10709 
229 1 11.448 15.3938 1.76024 3.41218 -4.32279 
230 1 9.33115 14.1404 1.76025 0.477245 -4.35907 
231 1 11.7559 16.9157 0.000378068 6.41782 -4.04104 
331 1 13.3061 15.1487 0.000361974 0.481828 -4.40878 
639 1 11.1562 13.7586 3.52016 0.0499924 -4.44238 
640 1 9.69196 15.7325 3.52015 8.35718 -4.10709 
641 1 11.448 15.3938 5.28003 3.41218 -4.32279 
642 1 9.33115 14.1404 5.28004 0.477245 -4.35907 
643 1 11.7559 16.9157 3.52017 6.41782 -4.04104 
743 1 13.3061 15.1487 3.52015 0.481828 -4.40878 
132 1 9.31257 19.6836 1.76025 0.88808 -4.33441 
135 1 9.00807 21.3721 0.000357018 0.0268269 -4.45649 
544 1 9.31257 19.6836 5.28004 0.88808 -4.33441 
547 1 9.00807 21.3721 3.52015 0.0268269 -4.45649 
232 1 11.4178 18.4225 1.76024 3.56686 -4.31274 
233 1 10.7634 21.7297 1.76025 0.013968 -4.45611 
234 1 12.8938 20.3728 1.76025 0.0859797 -4.44613 
235 1 9.63682 18.053 0.000357421 9.14856 -4.10757 
236 1 11.1223 20.0525 0.000361488 0.0373166 -4.44823 
237 1 13.2905 18.6857 0.000359801 0.50958 -4.40061 
238 1 12.5061 22.093 0.000357673 0.00441629 -4.44849 
644 1 11.4178 18.4225 5.28003 3.56686 -4.31274 
645 1 10.7634 21.7297 5.28004 0.013968 -4.45611 
646 1 12.8938 20.3728 5.28004 0.0859797 -4.44613 
647 1 9.63682 18.053 3.52015 9.14856 -4.10757 
648 1 11.1223 20.0525 3.52015 0.0373166 -4.44823 
649 1 13.2905 18.6857 3.52015 0.50958 -4.40061 
650 1 12.5061 22.093 3.52015 0.00441629 -4.44849 
239 1 10.0701 25.1835 1.76025 0.000598028 -4.45048 
240 1 12.1412 23.8094 1.76025 0.00111581 -4.44971 
244 1 11.7936 25.5319 0.000357783 0.000762485 -4.45074 
242 1 10.4133 23.4494 0.000357572 0.0041533 -4.45392 
248 1 9.72758 26.9164 0.000358127 8.11247e-05 -4.44935 
651 1 10.0701 25.1835 5.28004 0.000598028 -4.45048 
652 1 12.1412 23.8094 5.28004 0.00111581 -4.44971 
656 1 11.7936 25.5319 3.52015 0.000762485 -4.45074 
654 1 10.4133 23.4494 3.52015 0.0041533 -4.45392 
660 1 9.72758 26.9164 3.52015 8.11247e-05 -4.44935 
148 1 9.03725 30.3705 0.000359549 1.84089e-05 -4.44979 
145 1 9.38293 28.6447 1.76025 6.19876e-05 -4.44945 
560 1 9.03725 30.3705 3.52015 1.84089e-05 -4.44979 
557 1 9.38293 28.6447 5.28004 6.19876e-05 -4.44945 
245 1 11.4505 27.2595 1.76025 0.000157838 -4.45039 
246 1 10.7624 30.715 1.76025 9.37276e-06 -4.44982 
247 1 12.8317 29.3323 1.76025 3.7664e-05 -4.45031 
249 1 13.1764 27.6061 0.000358481 0.000139175 -4.45077 
250 1 11.1071 28.9879 0.000359074 1.14354e-05 -4.44991 
251 1 12.4871 31.0592 0.000359956 2.93402e-06 -4.44999 
657 1 11.4505 27.2595 5.28004 0.000157838 -4.45039 
658 1 10.7624 30.715 5.28004 9.37276e-06 -4.44982 
659 1 12.8317 29.3323 5.28004 3.7664e-05 -4.45031 
661 1 13.1764 27.6061 3.52015 0.000139175 -4.45077 
662 1 11.1071 28.9879 3.52015 1.14354e-05 -4.44991 
663 1 12.4871 31.0592 3.52015 2.93402e-06 -4.44999 
252 1 10.0717 34.1667 1.76025 1.3897e-06 -4.45001 
253 1 12.1422 32.7858 1.76025 1.20413e-06 -4.44992 
256 1 11.7972 34.5119 0.000359984 2.25866e-06 -4.44997 
255 1 10.4171 32.4411 0.000360435 5.34132e-06 -4.44991 
261 1 9.72643 35.8922 0.000359055 1.82078e-07 -4.45005 
664 1 10.0717 34.1667 5.28004 1.3897e-06 -4.45001 
665 1 12.1422 32.7858 5.28004 1.20413e-06 -4.44992 
668 1 11.7972 34.5119 3.52015 2.25866e-06 -4.44997 
667 1 10.4171 32.4411 3.52015 5.34132e-06 -4.44991 
673 1 9.72643 35.8922 3.52015 1.82078e-07 -4.45005 
161 1 9.03528 39.343 0.000356595 2.45483e-05 -4.44974 
158 1 9.38098 37.6176 1.76025 3.23506e-06 -4.44998 
573 1 9.03528 39.343 3.52015 2.45483e-05 -4.44974 
570 1 9.38098 37.6176 5.28004 3.23506e-06 -4.44998 
258 1 11.4521 36.2378 1.76025 3.05455e-06 -4.45006 
259 1 10.7611 39.6885 1.76025 8.54586e-06 -4.44995 
260 1 12.8326 38.3094 1.76025 1.13691e-05 -4.45016 
262 1 11.1068 37.9635 0.000357533 3.34982e-06 -4.45011 
263 1 13.1774 36.5831 0.000358705 2.26533e-06 -4.45 
264 1 12.4873 40.0351 0.000356581 2.41886e-05 -4.45031 
670 1 11.4521 36.2378 5.28004 3.05455e-06 -4.45006 
671 1 10.7611 39.6885 5.28004 8.54586e-06 -4.44995 
672 1 12.8326 38.3094 5.28004 1.13691e-05 -4.45016 
674 1 11.1068 37.9635 3.52015 3.34982e-06 -4.45011 
675 1 13.1774 36.5831 3.52015 2.26533e-06 -4.45 
676 1 12.4873 40.0351 3.52015 2.41886e-05 -4.45031 
265 1 10.0675 43.1388 1.76025 0.00041998 -4.44881 
266 1 12.1409 41.7592 1.76025 3.66636e-05 -4.45019 
270 1 11.7926 43.481 0.000356656 0.000440252 -4.44941 
268 1 10.4143 41.4129 0.000356043 0.000105511 -4.44945 
677 1 10.0675 43.1388 5.28004 0.00041998 -4.44881 
678 1 12.1409 41.7592 5.28004 3.66636e-05 -4.45019 
682 1 11.7926 43.481 3.52015 0.000440252 -4.44941 
680 1 10.4143 41.4129 3.52015 0.000105511 -4.44945 
171 1 9.38926 46.6117 1.76025 0.00465841 -4.45357 
174 1 9.07055 48.3463 0.000359758 0.0400406 -4.45434 
583 1 9.38926 46.6117 5.28004 0.00465841 -4.45357 
586 1 9.07055 48.3463 3.52015 0.0400406 -4.45434 
271 1 11.4451 45.2032 1.76025 0.00215195 -4.44738 
272 1 10.7941 48.6956 1.76025 0.0579369 -4.4247 
273 1 12.8194 47.2627 1.76025 0.0138449 -4.43866 
274 1 9.72335 44.8706 0.000357509 0.000664063 -4.44931 
275 1 13.1723 45.5444 0.000358028 0.00182395 -4.44696 
276 1 11.1063 46.9334 0.000358724 0.00658588 -4.44266 
277 1 12.4531 49.0095 0.000359604 0.0695556 -4.41291 
683 1 11.4451 45.2032 5.28004 0.00215195 -4.44738 
684 1 10.7941 48.6956 5.28004 0.0579369 -4.4247 
685 1 12.8194 47.2627 5.28004 0.0138449 -4.43866 
686 1 9.72335 44.8706 3.52015 0.000664063 -4.44931 
687 1 13.1723 45.5444 3.52015 0.00182395 -4.44696 
688 1 11.1063 46.9334 3.52015 0.00658588 -4.44266 
689 1 12.4531 49.0095 3.52015 0.0695556 -4.41291 
278 1 9.97865 52.6476 1.76025 7.36771 -4.25156 
279 1 12.07 50.8901 1.76025 0.34326 -4.3656 
282 1 11.8026 52.8065 0.000357611 2.09339 -4.3864 
281 1 10.4859 50.5196 0.000359214 0.534597 -4.32284 
690 1 9.97865 52.6476 5.28004 7.36771 -4.25156 
691 1 12.07 50.8901 5.28004 0.34326 -4.3656 
694 1 11.8026 52.8065 3.52015 2.09339 -4.3864 
693 1 10.4859 50.5196 3.52015 0.534597 -4.32284 
284 1 10.5061 55.1058 0.000356084 1.13934 -4.24851 
285 1 12.0852 54.7181 1.76025 0.589726 -4.33218 
286 1 12.4791 56.5977 0.000356873 0.074262 -4.4143 
287 1 10.8148 56.9131 1.76025 0.0513055 -4.4244 
290 1 9.09179 57.2574 0.000357291 0.0268298 -4.45649 
696 1 10.5061 55.1058 3.52015 1.13934 -4.24851 
697 1 12.0852 54.7181 5.28004 0.589726 -4.33218 
698 1 12.4791 56.5977 3.52015 0.074262 -4.4143 
699 1 10.8148 56.9131 5.28004 0.0513055 -4.4244 
702 1 9.09179 57.2574 3.52015 0.0268298 -4.45649 
291 1 11.1308 58.6694 0.000357287 0.00636715 -4.44295 