ITEM: TIMESTEP
84
ITEM: NUMBER OF ATOMS
206
ITEM: BOX BOUNDS pp pp pp
-1.0000000000000000e-03 8.9742743439232893e+00
-1.0000000000000000e-03 7.1794194751386300e+01
-1.0000000000000000e-03 3.5200000000000000e+00
ITEM: ATOMS id type x y z c_csym c_peratom 
1 1 1.47112 1.37533 -0.000250986 5.79655e-06 -4.4499 
2 1 3.19684 1.03058 1.76025 8.88854e-07 -4.44992 
3 1 3.54179 2.75789 -0.000249704 5.03678e-06 -4.45003 
4 1 1.81646 3.10219 1.76025 9.57504e-06 -4.44982 
5 1 -0.600525 -0.00541072 -0.000252034 2.24319e-07 -4.45004 
6 1 -0.254979 1.72061 1.76025 3.04873e-06 -4.44997 
7 1 0.0908162 3.44656 -0.000248873 2.37708e-05 -4.44973 
8 1 2.16097 4.8302 -0.000247764 1.75343e-05 -4.44999 
9 1 2.84722 8.28709 -0.00024839 0.000951408 -4.45094 
10 1 2.50417 6.55938 1.76025 0.000234407 -4.45055 
11 1 0.436471 5.17339 1.76025 6.66847e-05 -4.44941 
12 1 0.780717 6.90307 -0.000247617 9.24039e-05 -4.44944 
13 1 1.1223 8.63732 1.76025 0.000968426 -4.45088 
14 1 3.5647 11.7207 -0.000248891 0.00764969 -4.44677 
15 1 3.19619 10.008 1.76025 0.00117171 -4.4496 
16 1 -0.597421 8.97599 -0.000249043 0.000666757 -4.44931 
17 1 1.46494 10.371 -0.000249627 0.00560295 -4.45456 
18 1 0.0556191 12.4529 -0.000249388 0.0400297 -4.45427 
19 1 1.81598 12.0856 1.76026 0.0158391 -4.4552 
20 1 -0.263236 10.7178 1.76026 0.00466347 -4.45352 
21 1 2.18327 13.7511 -0.0002543 0.0500127 -4.44246 
22 1 0.71851 15.7254 -0.000250062 8.36353 -4.10788 
23 1 2.47518 15.3867 1.76027 3.41491 -4.32318 
24 1 0.357559 14.1329 1.76026 0.477556 -4.35915 
25 1 2.78325 16.9092 -0.000267006 6.42231 -4.04304 
26 1 2.44496 18.4166 1.76026 3.57011 -4.31308 
27 1 1.7903 21.7248 1.76026 0.0139776 -4.45604 
28 1 3.92139 20.3675 1.76025 0.086116 -4.44608 
29 1 0.663382 18.0471 -0.000251059 9.15523 -4.10792 
30 1 2.14929 20.047 -0.000253336 0.0373001 -4.44826 
31 1 4.31828 18.6798 -0.000251378 0.510058 -4.40071 
32 1 3.53361 22.0882 -0.000249996 0.0044232 -4.44849 
33 1 1.09677 25.1798 1.76025 0.000595841 -4.45046 
34 1 3.16859 23.8052 1.76025 0.00111726 -4.4497 
35 1 4.55022 25.8801 1.76025 0.000167096 -4.45057 
36 1 1.44007 23.4451 -0.00024966 0.00417085 -4.45387 
37 1 4.89936 24.1628 -0.000249462 0.00109718 -4.44783 
38 1 2.82079 25.5283 -0.000248724 0.000767819 -4.45073 
39 1 2.47758 27.2565 1.76025 0.000160851 -4.45038 
40 1 1.7892 30.7132 1.76026 9.13778e-06 -4.44981 
41 1 3.85925 29.33 1.76026 3.91771e-05 -4.45031 
42 1 0.754058 26.9133 -0.000249556 8.07283e-05 -4.44934 
43 1 4.20406 27.6032 -0.000249454 0.000139796 -4.45076 
44 1 2.13407 28.9855 -0.000250793 1.16203e-05 -4.44991 
45 1 3.51456 31.0576 -0.00025084 2.88667e-06 -4.44999 
46 1 1.09831 34.1661 1.76026 1.60711e-06 -4.45 
47 1 3.16954 32.7847 1.76026 1.10389e-06 -4.44991 
48 1 4.55021 34.8564 1.76026 5.85234e-08 -4.44994 
49 1 1.44382 32.4399 -0.000251963 5.25221e-06 -4.44991 
50 1 2.82441 34.5114 -0.000252151 2.27906e-06 -4.44997 
51 1 4.89521 33.1295 -0.000252475 1.60816e-06 -4.44999 
52 1 2.47917 36.2379 1.76026 2.8399e-06 -4.45006 
53 1 1.78792 39.6898 1.76025 9.08316e-06 -4.44995 
54 1 3.86017 38.3102 1.76025 1.16218e-05 -4.45016 
55 1 0.752969 35.8922 -0.000252042 2.23878e-07 -4.45004 
56 1 2.13383 37.9642 -0.000250799 3.03701e-06 -4.45011 
57 1 4.20516 36.5833 -0.000251352 2.53999e-06 -4.45001 
58 1 3.51482 40.0366 -0.000248473 2.53686e-05 -4.4503 
59 1 1.09409 43.1414 1.76025 0.000418203 -4.44881 
60 1 3.16824 41.7612 1.76025 3.6478e-05 -4.45019 
61 1 4.5502 43.8317 1.76025 0.000185017 -4.45034 
62 1 1.44108 41.4148 -0.000248107 0.000106593 -4.44946 
63 1 4.8966 42.1095 -0.000247519 0.000159829 -4.45083 
64 1 2.81978 43.4836 -0.000247552 0.000440595 -4.44942 
65 1 2.47227 45.2064 1.76025 0.00214469 -4.44741 
66 1 1.82097 48.7001 1.76026 0.0579374 -4.42472 
67 1 3.84699 47.2666 1.76026 0.0138621 -4.43874 
68 1 0.749866 44.8736 -0.00024891 0.000666924 -4.44931 
69 1 4.19999 45.5478 -0.000248592 0.00182203 -4.44698 
70 1 2.13332 46.9372 -0.000250412 0.00660153 -4.44272 
71 1 3.48055 49.0141 -0.000248816 0.0694609 -4.413 
72 1 1.0053 52.6532 1.76025 7.37194 -4.24922 
73 1 3.09732 50.8953 1.76026 0.343346 -4.36534 
74 1 4.62867 52.8083 1.76026 1.10383 -4.42269 
75 1 1.51267 50.5245 -0.000247263 0.534892 -4.3226 
76 1 2.82988 52.8123 -0.000248509 2.09452 -4.38505 
77 1 4.79376 51.0393 -0.000250668 0.482242 -4.40889 
78 1 1.53283 55.1125 -0.000250193 1.14075 -4.24828 
79 1 3.11265 54.7245 1.76025 0.590197 -4.33187 
80 1 3.50652 56.6049 -0.000249756 0.0743321 -4.41442 
81 1 1.84173 56.9203 1.76025 0.0513233 -4.42442 
82 1 -0.510939 53.9447 -0.000251063 9.15519 -4.10792 
83 1 -0.186537 55.5756 1.76025 0.888951 -4.33443 
84 1 0.118104 57.2647 -0.000250471 0.0268358 -4.45645 
85 1 2.15781 58.6772 -0.00024951 0.00635807 -4.443 
86 1 2.84741 62.1261 -0.000249786 0.000275145 -4.44976 
87 1 2.49901 60.4043 1.76025 0.00177308 -4.44789 
88 1 0.438666 58.999 1.76025 0.00313161 -4.45295 
89 1 0.775394 60.7388 -0.000249998 0.000688618 -4.44922 
90 1 1.12125 62.4697 1.76026 0.000358299 -4.44894 
91 1 3.54216 65.5739 -0.00025001 2.31455e-05 -4.45028 
92 1 3.19578 63.8489 1.76026 2.82549e-05 -4.45028 
93 1 -0.601611 62.8109 -0.000249363 8.08085e-05 -4.44934 
94 1 1.46864 64.1956 -0.000250226 7.28446e-05 -4.44958 
95 1 0.0888985 66.2663 -0.000251278 1.87725e-05 -4.44979 
96 1 1.81538 65.9206 1.76026 6.04373e-06 -4.45 
97 1 -0.256878 64.5398 1.76026 6.15998e-05 -4.44945 
98 1 2.16115 67.6461 -0.000250727 3.51724e-06 -4.45011 
99 1 0.780385 69.7181 -0.000252824 4.66651e-07 -4.45004 
100 1 2.50656 69.3724 1.76026 3.20853e-06 -4.45004 
101 1 0.434762 67.9921 1.76026 2.10818e-06 -4.45 
102 1 2.85178 71.0989 -0.000252739 2.39248e-06 -4.44995 
103 1 1.12574 71.4442 1.76026 2.18003e-06 -4.44999 
104 1 4.92256 0.685734 -0.000251261 2.55086e-06 -4.45001 
105 1 6.64855 0.340334 1.76026 2.84433e-06 -4.45006 
106 1 6.99389 2.06655 -0.000250651 3.03778e-06 -4.45011 
107 1 5.6129 4.13895 -0.000248453 2.5385e-05 -4.4503 
108 1 7.3398 3.79214 1.76025 9.09037e-06 -4.44995 
109 1 5.26755 2.41261 1.76025 1.1605e-05 -4.45016 
110 1 7.68664 5.51721 -0.000248279 0.000106574 -4.44946 
111 1 6.30794 7.58596 -0.000247601 0.000440543 -4.44942 
112 1 8.03362 7.24375 1.76025 0.000418397 -4.44881 
113 1 5.95948 5.86356 1.76025 3.64626e-05 -4.45019 
114 1 3.88644 4.48544 1.76025 4.85579e-05 -4.45039 
115 1 4.23112 6.21188 -0.000247531 0.000159764 -4.45083 
116 1 4.57752 7.93404 1.76025 0.000185047 -4.45034 
117 1 6.9944 11.0396 -0.000250422 0.00660146 -4.44272 
118 1 6.65545 9.30878 1.76025 0.00214437 -4.44741 
119 1 7.30675 12.8025 1.76026 0.0579394 -4.42471 
120 1 4.92773 9.65015 -0.000248739 0.0018224 -4.44698 
121 1 5.28074 11.369 1.76026 0.0138608 -4.43874 
122 1 5.64718 13.1165 -0.000248949 0.0694726 -4.41301 
123 1 7.61505 14.6269 -0.000247515 0.534873 -4.32261 
124 1 8.12243 16.7555 1.76025 7.37144 -4.24921 
125 1 4.33394 15.1417 -0.000250946 0.482143 -4.40888 
126 1 6.03041 14.9976 1.76026 0.343328 -4.36535 
127 1 3.9506 13.443 1.76026 0.091829 -4.44536 
128 1 6.29784 16.9147 -0.000248732 2.0946 -4.38505 
129 1 4.49905 16.9107 1.76026 1.10382 -4.42269 
130 1 6.01507 18.8269 1.76025 0.590263 -4.33186 
131 1 7.28599 21.0227 1.76025 0.0513213 -4.42442 
132 1 9.31426 19.678 1.76025 0.889024 -4.33443 
133 1 5.62119 20.7073 -0.000249682 0.0743249 -4.41442 
134 1 7.59488 19.2149 -0.000249829 1.14089 -4.24827 
135 1 9.00962 21.3671 -0.000250536 0.0268346 -4.45645 
136 1 5.25213 22.4463 1.76025 0.0118665 -4.4395 
137 1 6.62871 24.5067 1.76025 0.00177305 -4.44789 
138 1 8.68905 23.1014 1.76025 0.00313108 -4.45295 
139 1 8.00647 26.572 1.76025 0.000358164 -4.44894 
140 1 6.96991 22.7796 -0.000249712 0.0063582 -4.443 
141 1 8.35233 24.8412 -0.000249887 0.000688661 -4.44922 
142 1 6.28031 26.2285 -0.000249673 0.000275154 -4.44976 
143 1 5.93194 27.9513 1.76025 2.82521e-05 -4.45028 
144 1 7.31234 30.023 1.76026 6.03009e-06 -4.45 
145 1 9.3846 28.6422 1.76026 6.16923e-05 -4.44945 
146 1 7.65908 28.298 -0.000249959 7.29204e-05 -4.44958 
147 1 5.58556 29.6763 -0.000250032 2.31729e-05 -4.45028 
148 1 9.03882 30.3687 -0.000251242 1.87391e-05 -4.44979 
149 1 5.24028 31.4027 1.76026 1.01767e-05 -4.45012 
150 1 6.62116 33.4748 1.76026 3.23239e-06 -4.45004 
151 1 8.69296 32.0945 1.76026 2.11998e-06 -4.45 
152 1 8.00198 35.5466 1.76026 2.15337e-06 -4.44999 
153 1 6.96657 31.7485 -0.000250816 3.48696e-06 -4.45011 
154 1 6.27594 35.2013 -0.000252907 2.36904e-06 -4.44995 
155 1 8.34733 33.8205 -0.000252814 4.69168e-07 -4.45004 
156 1 5.93088 36.9282 1.76025 8.97265e-07 -4.44992 
157 1 7.31126 38.9998 1.76025 9.54388e-06 -4.44982 
158 1 9.3827 37.6182 1.76025 3.0563e-06 -4.44997 
159 1 5.58593 38.6555 -0.000249929 5.02508e-06 -4.45003 
160 1 7.6566 37.2729 -0.000251196 5.80989e-06 -4.4499 
161 1 9.0369 39.3442 -0.000248988 2.37579e-05 -4.44973 
162 1 5.24128 40.383 1.76025 4.85112e-05 -4.45039 
163 1 6.62355 42.457 1.76025 0.000234484 -4.45055 
164 1 8.69125 41.071 1.76025 6.67564e-05 -4.44941 
165 1 8.00542 44.5349 1.76025 0.000968246 -4.45088 
166 1 6.96675 40.7278 -0.000248032 1.75501e-05 -4.44999 
167 1 8.347 42.8007 -0.000247858 9.23477e-05 -4.44944 
168 1 6.2805 44.1847 -0.00024822 0.000951206 -4.45094 
169 1 5.93152 45.9056 1.76025 0.00117201 -4.4496 
170 1 7.31174 47.9832 1.76026 0.0158313 -4.4552 
171 1 9.39096 46.6154 1.76026 0.00466557 -4.45352 
172 1 7.66278 46.2686 -0.000249357 0.00560508 -4.45456 
173 1 5.56302 47.6183 -0.000248637 0.00765152 -4.44677 
174 1 9.0721 48.3506 -0.000249419 0.040021 -4.45428 
175 1 5.17712 49.3406 1.76026 0.0918433 -4.44536 
176 1 6.65256 51.2843 1.76027 3.41505 -4.32319 
177 1 8.77016 50.0305 1.76026 0.477556 -4.35914 
178 1 8.40922 51.623 -0.000249742 8.36375 -4.10788 
179 1 6.94445 49.6487 -0.000254071 0.0500105 -4.44245 
180 1 6.34447 52.8069 -0.000266699 6.42209 -4.04305 
181 1 4.80944 54.5774 -0.000251362 0.510021 -4.40069 
182 1 6.68276 54.3142 1.76027 3.57003 -4.31306 
183 1 6.97843 55.9446 -0.000253368 0.0372972 -4.44827 
184 1 5.59411 57.9859 -0.000250187 0.00442365 -4.44848 
185 1 7.33742 57.6224 1.76026 0.0139791 -4.45604 
186 1 5.20633 56.2651 1.76025 0.0861148 -4.44608 
187 1 7.68765 59.3427 -0.000249864 0.00417071 -4.45387 
188 1 6.30693 61.4259 -0.000248792 0.000767907 -4.45073 
189 1 8.03095 61.0774 1.76025 0.00059601 -4.45047 
190 1 5.95913 59.7028 1.76025 0.00111718 -4.4497 
191 1 3.87559 58.3439 1.76025 0.0118652 -4.4395 
192 1 4.22836 60.0604 -0.000249419 0.00109764 -4.44783 
193 1 4.5775 61.7777 1.76025 0.000167147 -4.45057 
194 1 6.99365 64.8831 -0.000250491 1.16085e-05 -4.44991 
195 1 6.65014 63.1541 1.76026 0.000160747 -4.45038 
196 1 7.33852 66.6108 1.76026 9.16272e-06 -4.44981 
197 1 4.92366 63.5008 -0.000249507 0.000139735 -4.45076 
198 1 5.26847 65.2276 1.76026 3.91563e-05 -4.45031 
199 1 5.61316 66.9552 -0.000250615 2.88165e-06 -4.44999 
200 1 7.6839 68.3375 -0.000251837 5.22151e-06 -4.44991 
201 1 8.02941 70.0637 1.76026 1.61892e-06 -4.45 
202 1 4.23251 69.0271 -0.000252254 1.59809e-06 -4.44999 
203 1 5.95818 68.6823 1.76026 1.10161e-06 -4.44991 
204 1 3.88744 67.3003 1.76026 1.01949e-05 -4.45012 
205 1 6.30331 70.409 -0.000251871 2.28216e-06 -4.44997 
206 1 4.57751 70.754 1.76026 5.83198e-08 -4.44994 
