ITEM: TIMESTEP
104
ITEM: NUMBER OF ATOMS
824
ITEM: BOX BOUNDS pp pp pp
6.1181472035e-04 17.9448553824
0.011609011 71.7815857404
-3.6768510768e-04 7.0391588163
ITEM: ATOMS id type x y z Centrosymmetry StructureType
1 1 1.46987 1.38768 3.8448e-04 6.0663464563e-06 1
2 1 3.19495 1.04299 1.76027 1.2083834505e-06 1
3 1 3.53979 2.76981 3.84481e-04 4.9756823217e-06 1
4 1 1.81509 3.11404 1.76027 1.0172737003e-05 1
7 1 0.0901059 3.45828 3.84482e-04 2.5529478718e-05 1
114 1 3.88421 4.49694 1.76027 5.3465921815e-05 1
413 1 1.46987 1.38768 3.52015 6.066264062e-06 1
414 1 3.19495 1.04299 5.28003 1.2082653957e-06 1
415 1 3.53979 2.76981 3.52015 4.9756e-06 1
416 1 1.81509 3.11404 5.28003 1.0172619039e-05 1
419 1 0.0901059 3.45828 3.52015 2.5529396469e-05 1
526 1 3.88421 4.49694 5.28003 5.3465803865e-05 1
8 1 2.15949 4.84154 3.84482e-04 1.7370599059e-05 1
9 1 2.84536 8.29731 3.8448e-04 9.4499520639e-04 1
10 1 2.50246 6.5702 1.76027 2.3668621884e-04 1
11 1 0.435563 5.18452 1.76027 6.9018290195e-05 1
12 1 0.779532 6.91361 3.84481e-04 9.0301496864e-05 1
13 1 1.121 8.64727 1.76027 9.5339363753e-04 1
115 1 4.22878 6.22284 3.84481e-04 1.6300838232e-04 1
420 1 2.15949 4.84154 3.52015 1.737051681e-05 1
421 1 2.84536 8.29731 3.52015 9.44995124e-04 1
422 1 2.50246 6.5702 5.28003 2.3668610086e-04 1
423 1 0.435563 5.18452 5.28003 6.9018172257e-05 1
424 1 0.779532 6.91361 3.52015 9.0301414542e-05 1
425 1 1.121 8.64727 5.28003 9.5339351948e-04 1
527 1 4.22878 6.22284 3.52015 1.630083e-04 1
14 1 3.56226 11.7298 3.84478e-04 0.0074601249 1
15 1 3.19403 10.0177 1.76027 0.0011913521 1
19 1 1.81425 12.0947 1.76027 0.0158413824 1
17 1 1.46347 10.3804 3.84478e-04 0.0055450078 1
18 1 0.054694 12.4617 3.84477e-04 0.0397948293 1
127 1 3.94819 13.4513 1.76027 0.0917894989 1
426 1 3.56226 11.7298 3.52015 0.0074601248 1
427 1 3.19403 10.0177 5.28003 0.001191352 1
431 1 1.81425 12.0947 5.28003 0.0158413823 1
429 1 1.46347 10.3804 3.52015 0.0055450077 1
430 1 0.054694 12.4617 3.52015 0.0397948292 1
539 1 3.94819 13.4513 5.28003 0.0917894988 1
21 1 2.18109 13.7599 3.84481e-04 0.0492077699 1
22 1 0.716157 15.7347 3.84478e-04 8.3909809667 0
23 1 2.47296 15.3946 1.76027 3.4211352378 0
24 1 0.35646 14.1415 1.76027 0.4919773407 1
25 1 2.7829 16.9155 3.84482e-04 6.4213358216 0
125 1 4.33199 15.1484 3.84479e-04 0.4836367669 1
433 1 2.18109 13.7599 3.52015 0.0492077698 1
434 1 0.716157 15.7347 3.52015 8.3909775404 0
435 1 2.47296 15.3946 5.28003 3.4211352377 0
436 1 0.35646 14.1415 5.28003 0.4919773406 1
437 1 2.7829 16.9155 3.52015 6.4213358215 0
537 1 4.33199 15.1484 3.52015 0.4836367668 1
26 1 2.44635 18.4227 1.76027 3.5583810419 0
27 1 1.79235 21.7293 1.76027 0.0140502292 1
28 1 3.92278 20.3724 1.76027 0.0865006187 1
29 1 0.666716 18.0549 3.84484e-04 9.1134801034 0
30 1 2.15143 20.0528 3.84484e-04 0.0377453793 1
31 1 4.31851 18.685 3.84483e-04 0.508598225 1
32 1 3.53543 22.0926 3.84481e-04 0.0045481392 1
438 1 2.44635 18.4227 5.28003 3.5583810418 0
439 1 1.79235 21.7293 5.28003 0.0140502291 1
440 1 3.92278 20.3724 5.28003 0.0865006186 1
441 1 0.666716 18.0549 3.52015 9.1134801034 0
442 1 2.15143 20.0528 3.52015 0.0377453792 1
443 1 4.31851 18.685 3.52015 0.5085982249 1
444 1 3.53543 22.0926 3.52015 0.0045481391 1
338 1 0.340746 19.6831 1.76027 0.863820573 1
341 1 0.036723 21.3711 3.84482e-04 0.0276063877 1
750 1 0.340746 19.6831 5.28003 0.8638205728 1
753 1 0.036723 21.3711 3.52015 0.0276063876 1
33 1 1.09985 25.1827 1.76027 6.093945769e-04 1
34 1 3.17071 23.8088 1.76027 0.0011185108 1
38 1 2.82342 25.5312 3.84476e-04 7.6839943869e-04 1
36 1 1.44255 23.4487 3.8448e-04 0.0042291009 1
42 1 0.757736 26.9157 3.84474e-04 8.2552233648e-05 1
445 1 1.09985 25.1827 5.28003 6.093944587e-04 1
446 1 3.17071 23.8088 5.28003 0.0011185107 1
450 1 2.82342 25.5312 3.52015 7.68399356e-04 1
448 1 1.44255 23.4487 3.52015 0.0042291008 1
454 1 0.757736 26.9157 3.52015 8.2552150818e-05 1
39 1 2.48073 27.2589 1.76027 1.5411867516e-04 1
40 1 1.79291 30.7145 1.76027 9.1087633483e-06 1
41 1 3.86219 29.3317 1.76027 3.7046622224e-05 1
43 1 4.20665 27.6055 3.84473e-04 1.336774829e-04 1
44 1 2.13752 28.9873 3.84472e-04 1.1700327466e-05 1
45 1 3.51769 31.0588 3.84472e-04 3.2079829763e-06 1
451 1 2.48073 27.2589 5.28003 1.541185568e-04 1
452 1 1.79291 30.7145 5.28003 9.1086449165e-06 1
453 1 3.86219 29.3317 5.28003 3.7046503792e-05 1
455 1 4.20665 27.6055 3.52015 1.336774e-04 1
456 1 2.13752 28.9873 3.52015 1.170024449e-05 1
457 1 3.51769 31.0588 3.52015 3.2079e-06 1
354 1 0.0677743 30.3701 3.84472e-04 1.9540110389e-05 1
351 1 0.413341 28.6441 1.76027 6.0688749164e-05 1
766 1 0.0677743 30.3701 3.52015 1.9540027412e-05 1
763 1 0.413341 28.6441 5.28003 6.0688630759e-05 1
46 1 1.10221 34.1666 1.76027 1.2967967711e-06 1
47 1 3.17277 32.7856 1.76027 1.4975221578e-06 1
50 1 2.82762 34.5119 3.84476e-04 2.423523685e-06 1
49 1 1.44762 32.4408 3.84473e-04 5.7819444652e-06 1
55 1 0.756801 35.8923 3.84477e-04 2.0452625465e-07 1
458 1 1.10221 34.1666 5.28003 1.2966784953e-06 1
459 1 3.17277 32.7856 5.28003 1.497403804e-06 1
462 1 2.82762 34.5119 3.52015 2.423441e-06 1
461 1 1.44762 32.4408 3.52015 5.7818615618e-06 1
467 1 0.756801 35.8923 3.52015 2.0444364234e-07 1
52 1 2.48243 36.238 1.76027 3.470748992e-06 1
53 1 1.7913 39.6887 1.76027 8.7396723847e-06 1
54 1 3.86283 38.3096 1.76027 1.1848021915e-05 1
56 1 2.13712 37.9637 3.84479e-04 3.443934467e-06 1
57 1 4.20776 36.5832 3.84478e-04 2.0588825396e-06 1
58 1 3.51762 40.0354 3.8448e-04 2.4911782394e-05 1
464 1 2.48243 36.238 5.28003 3.4706308333e-06 1
465 1 1.7913 39.6887 5.28003 8.7395543429e-06 1
466 1 3.86283 38.3096 5.28003 1.1847903847e-05 1
468 1 2.13712 37.9637 3.52015 3.443852e-06 1
469 1 4.20776 36.5832 3.52015 2.0588e-06 1
470 1 3.51762 40.0354 3.52015 2.49117e-05 1
367 1 0.065509 39.3433 3.8448e-04 2.417869407e-05 1
364 1 0.411255 37.6179 1.76027 2.9085245519e-06 1
779 1 0.065509 39.3433 3.52015 2.4178611675e-05 1
776 1 0.411255 37.6179 5.28003 2.9084064582e-06 1
59 1 1.09788 43.1391 1.76027 4.2179757952e-04 1
60 1 3.17122 41.7595 1.76027 3.6615021915e-05 1
64 1 2.82294 43.4813 3.84478e-04 4.3832961854e-04 1
62 1 1.44467 41.4132 3.8448e-04 1.0558934944e-04 1
471 1 1.09788 43.1391 5.28003 4.2179746141e-04 1
472 1 3.17122 41.7595 5.28003 3.6614903847e-05 1
476 1 2.82294 43.4813 3.52015 4.38329536e-04 1
474 1 1.44467 41.4132 3.52015 1.0558926704e-04 1
65 1 2.4754 45.2035 1.76027 0.0021600572 1
66 1 1.8242 48.6957 1.76027 0.0578446437 1
67 1 3.84974 47.2629 1.76027 0.0138837314 1
68 1 0.753674 44.8708 3.84477e-04 6.6813120498e-04 1
69 1 4.20267 45.5449 3.84477e-04 0.001782171 1
70 1 2.13652 46.9335 3.84476e-04 0.0066601494 1
71 1 3.48318 49.0094 3.84475e-04 0.0703125832 1
477 1 2.4754 45.2035 5.28003 0.0021600571 1
478 1 1.8242 48.6957 5.28003 0.0578446435 1
479 1 3.84974 47.2629 5.28003 0.0138837313 1
480 1 0.753674 44.8708 3.52015 6.6813112237e-04 1
481 1 4.20267 45.5449 3.52015 0.0017821709 1
482 1 2.13652 46.9335 3.52015 0.0066601493 1
483 1 3.48318 49.0094 3.52015 0.0703125831 1
377 1 0.419519 46.612 1.76027 0.0046131633 1
380 1 0.100921 48.3467 3.84478e-04 0.0397892008 1
789 1 0.419519 46.612 5.28003 0.0046131632 1
792 1 0.100921 48.3467 3.52015 0.0397892008 1
72 1 1.00798 52.6613 1.76027 7.5725565856 0
73 1 3.09954 50.8902 1.76027 0.3505881629 1
76 1 2.83215 52.8055 3.84481e-04 2.0724581021 1
75 1 1.51608 50.5197 3.84477e-04 0.5503431205 1
484 1 1.00798 52.6613 5.28003 7.5725565854 0
485 1 3.09954 50.8902 5.28003 0.3505881628 1
488 1 2.83215 52.8055 3.52015 2.072458102 1
487 1 1.51608 50.5197 3.52015 0.5503431204 1
78 1 1.53363 55.1027 3.84483e-04 1.0954861462 0
79 1 3.1127 54.7163 1.76027 0.5737625157 1
80 1 3.50577 56.5962 3.84481e-04 0.0743266199 1
81 1 1.84191 56.9114 1.76027 0.051812067 1
84 1 0.118892 57.256 3.84483e-04 0.0276651642 1
490 1 1.53363 55.1027 3.52015 1.0954861461 0
491 1 3.1127 54.7163 5.28003 0.5737625156 1
492 1 3.50577 56.5962 3.52015 0.0743266198 1
493 1 1.84191 56.9114 5.28003 0.0518120669 1
496 1 0.118892 57.256 3.52015 0.0276651641 1
85 1 2.15738 58.6681 3.84481e-04 0.0064034582 1
86 1 2.84587 62.1161 3.84476e-04 2.7747701869e-04 1
87 1 2.49809 60.3948 1.76027 0.0017675228 1
88 1 0.438895 58.9899 1.76027 0.0031712259 1
89 1 0.774994 60.7292 3.84478e-04 6.8229191601e-04 1
90 1 1.12024 62.4595 1.76027 3.5904701275e-04 1
191 1 3.87439 58.3351 1.76027 0.0119466807 1
192 1 4.22677 60.0511 3.8448e-04 0.0011044351 1
497 1 2.15738 58.6681 3.52015 0.0064034581 1
498 1 2.84587 62.1161 3.52015 2.77476936e-04 1
499 1 2.49809 60.3948 5.28003 0.0017675226 1
500 1 0.438895 58.9899 5.28003 0.0031712258 1
501 1 0.774994 60.7292 3.52015 6.8229183348e-04 1
502 1 1.12024 62.4595 5.28003 3.5904689451e-04 1
603 1 3.87439 58.3351 5.28003 0.0119466806 1
604 1 4.22677 60.0511 3.52015 0.001104435 1
91 1 3.53985 65.5629 3.84474e-04 2.2068182831e-05 1
92 1 3.19374 63.8383 1.76027 2.8440622114e-05 1
96 1 1.81368 65.9094 1.76027 4.7403801835e-06 1
94 1 1.46721 64.1849 3.84474e-04 7.004424671e-05 1
95 1 0.0878406 66.255 3.84474e-04 1.7183670382e-05 1
204 1 3.88497 67.2889 1.76027 8.1514221357e-06 1
503 1 3.53985 65.5629 3.52015 2.20681e-05 1
504 1 3.19374 63.8383 5.28003 2.8440503812e-05 1
508 1 1.81368 65.9094 5.28003 4.7402618427e-06 1
506 1 1.46721 64.1849 3.52015 7.0044163879e-05 1
507 1 0.0878406 66.255 3.52015 1.7183587551e-05 1
616 1 3.88497 67.2889 5.28003 8.1513038079e-06 1
98 1 2.15936 67.6346 3.84474e-04 3.6717571905e-06 1
99 1 0.779046 69.706 3.84476e-04 4.0402903331e-07 1
100 1 2.50463 69.3605 1.76027 2.3414190694e-06 1
101 1 0.433545 67.9804 1.76027 1.3061500963e-06 1
102 1 2.84982 71.0866 3.84478e-04 1.9075521989e-06 1
103 1 1.12445 71.4318 1.76027 1.5318611984e-06 1
202 1 4.22992 69.0153 3.84475e-04 1.4319827579e-06 1
510 1 2.15936 67.6346 3.52015 3.6716743599e-06 1
511 1 0.779046 69.706 3.52015 4.0394634827e-07 1
512 1 2.50463 69.3605 5.28003 2.3413008196e-06 1
513 1 0.433545 67.9804 5.28003 1.3060317814e-06 1
514 1 2.84982 71.0866 3.52015 1.9074696593e-06 1
515 1 1.12445 71.4318 5.28003 1.5317430657e-06 1
614 1 4.22992 69.0153 3.52015 1.4319e-06 1
104 1 4.91998 0.69823 3.84479e-04 2.2010759355e-06 1
105 1 6.6453 0.352984 1.76027 3.4793136625e-06 1
106 1 6.99062 2.07873 3.84481e-04 3.5762382414e-06 1
107 1 5.61011 4.15046 3.84482e-04 2.5980282249e-05 1
108 1 7.33643 3.80375 1.76027 8.5533218043e-06 1
109 1 5.26491 2.42466 1.76027 1.2403637848e-05 1
516 1 4.91998 0.69823 3.52015 2.2009934686e-06 1
517 1 6.6453 0.352984 5.28003 3.4791955687e-06 1
518 1 6.99062 2.07873 3.52015 3.5761559197e-06 1
519 1 5.61011 4.15046 3.52015 2.59802e-05 1
520 1 7.33643 3.80375 5.28003 8.5532038666e-06 1
521 1 5.26491 2.42466 5.28003 1.2403519859e-05 1
212 1 8.71648 1.73288 1.76027 3.0627138889e-06 1
624 1 8.71648 1.73288 5.28003 3.0625958731e-06 1
110 1 7.68306 5.52819 3.84482e-04 1.0778008225e-04 1
111 1 6.30479 7.59635 3.8448e-04 4.3552298239e-04 1
112 1 8.02985 7.25409 1.76027 4.2164832186e-04 1
113 1 5.95652 5.87452 1.76027 3.5726321826e-05 1
116 1 4.57507 7.94446 1.76027 1.8107962188e-04 1
522 1 7.68306 5.52819 3.52015 1.0778e-04 1
523 1 6.30479 7.59635 3.52015 4.355229e-04 1
524 1 8.02985 7.25409 5.28003 4.2164820386e-04 1
525 1 5.95652 5.87452 5.28003 3.5726203863e-05 1
528 1 4.57507 7.94446 5.28003 1.8107950385e-04 1
117 1 6.99121 11.0485 3.84478e-04 0.006660239 1
118 1 6.65233 9.31851 1.76027 0.0021630069 1
119 1 7.30354 12.8107 1.76027 0.0578424208 1
120 1 4.92507 9.65992 3.84479e-04 0.0017786343 1
121 1 5.27799 11.3779 1.76027 0.0138865601 1
122 1 5.64455 13.1244 3.84477e-04 0.0703102762 1
529 1 6.99121 11.0485 3.52015 0.0066602389 1
530 1 6.65233 9.31851 5.28003 0.0021630068 1
531 1 7.30354 12.8107 5.28003 0.0578424207 1
532 1 4.92507 9.65992 3.52015 0.0017786342 1
533 1 5.27799 11.3779 5.28003 0.01388656 1
534 1 5.64455 13.1244 3.52015 0.0703102761 1
222 1 8.37406 8.98579 3.84479e-04 6.6846778247e-04 1
226 1 8.70822 10.727 1.76027 0.0046125504 1
634 1 8.37406 8.98579 3.52015 6.684677e-04 1
638 1 8.70822 10.727 5.28003 0.0046125503 1
123 1 7.61165 14.6347 3.84477e-04 0.550386052 1
124 1 8.11975 16.7763 1.76027 7.5720437942 0
129 1 4.49784 16.9167 1.76027 1.0998368379 1
126 1 6.0282 15.0052 1.76027 0.3506251731 1
128 1 6.29558 16.9206 3.8448e-04 2.0725436846 1
535 1 7.61165 14.6347 3.52015 0.5503860519 1
536 1 8.11975 16.7763 5.28003 7.572043794 0
541 1 4.49784 16.9167 5.28003 1.0998368378 1
538 1 6.0282 15.0052 5.28003 0.350625173 1
540 1 6.29558 16.9206 3.52015 2.0725436845 1
130 1 6.01503 18.8313 1.76027 0.5737334268 1
131 1 7.28582 21.0264 1.76027 0.0518371054 1
134 1 7.5941 19.2177 3.84483e-04 1.0954883723 0
133 1 5.62196 20.7113 3.84482e-04 0.0744864627 1
542 1 6.01503 18.8313 5.28003 0.5737334267 1
543 1 7.28582 21.0264 5.28003 0.0518371053 1
546 1 7.5941 19.2177 3.52015 1.0954883722 0
545 1 5.62196 20.7113 3.52015 0.0744864626 1
136 1 5.25335 22.4501 1.76027 0.0119168239 1
137 1 6.62965 24.5098 1.76027 0.0017643903 1
138 1 8.68884 23.1049 1.76027 0.0031805094 1
139 1 8.00749 26.5745 1.76027 3.5865052211e-04 1
140 1 6.97036 22.7831 3.84481e-04 0.0063900954 1
141 1 8.35274 24.8442 3.84477e-04 6.8175688261e-04 1
142 1 6.28186 26.2311 3.84475e-04 2.7536638276e-04 1
35 1 4.55232 25.8828 1.76027 1.6959132207e-04 1
37 1 4.90097 24.1662 3.84479e-04 0.0011197068 1
548 1 5.25335 22.4501 5.28003 0.0119168238 1
549 1 6.62965 24.5098 5.28003 0.0017643902 1
550 1 8.68884 23.1049 5.28003 0.0031805093 1
551 1 8.00749 26.5745 5.28003 3.5865040381e-04 1
552 1 6.97036 22.7831 3.52015 0.0063900953 1
553 1 8.35274 24.8442 3.52015 6.817568e-04 1
554 1 6.28186 26.2311 3.52015 2.753663e-04 1
447 1 4.55232 25.8828 5.28003 1.6959120382e-04 1
449 1 4.90097 24.1662 3.52015 0.0011197067 1
143 1 5.93399 27.9533 1.76027 2.787742218e-05 1
144 1 7.31405 30.0244 1.76027 4.4057222241e-06 1
147 1 5.58788 29.6779 3.84472e-04 2.2020282976e-05 1
146 1 7.66053 28.2999 3.84473e-04 7.0697482903e-05 1
149 1 5.24276 31.4039 1.76027 8.624022213e-06 1
555 1 5.93399 27.9533 5.28003 2.78773038e-05 1
556 1 7.31405 30.0244 5.28003 4.4056037922e-06 1
559 1 5.58788 29.6779 3.52015 2.20202e-05 1
558 1 7.66053 28.2999 3.52015 7.06974e-05 1
561 1 5.24276 31.4039 5.28003 8.6239037942e-06 1
51 1 4.89781 33.1303 3.84474e-04 1.6451828306e-06 1
150 1 6.6231 33.4755 1.76027 2.8483221246e-06 1
151 1 8.69419 32.0955 1.76027 2.0998221909e-06 1
152 1 8.00329 35.5468 1.76027 1.6360220141e-06 1
153 1 6.96837 31.7496 3.84472e-04 3.9842829763e-06 1
154 1 6.27791 35.2016 3.84477e-04 2.0913826123e-06 1
155 1 8.34869 33.821 3.84475e-04 4.5188275782e-07 1
48 1 4.55278 34.8568 1.76027 5.3022047268e-08 1
463 1 4.89781 33.1303 3.52015 1.6451e-06 1
562 1 6.6231 33.4755 5.28003 2.8482038098e-06 1
563 1 8.69419 32.0955 5.28003 2.0997037981e-06 1
564 1 8.00329 35.5468 5.28003 1.6359038294e-06 1
565 1 6.96837 31.7496 3.52015 3.9842e-06 1
566 1 6.27791 35.2016 3.52015 2.0913e-06 1
567 1 8.34869 33.821 3.52015 4.5180000001e-07 1
460 1 4.55278 34.8568 5.28003 5.2903823477e-08 1
156 1 5.93279 36.928 1.76027 1.0160219479e-06 1
157 1 7.31265 38.999 1.76027 1.0599421893e-05 1
160 1 7.65787 37.2727 3.84479e-04 5.7267824669e-06 1
159 1 5.58795 38.6548 3.8448e-04 5.3258823943e-06 1
162 1 5.24353 40.3819 1.76027 5.3331221893e-05 1
568 1 5.93279 36.928 5.28003 1.0159038411e-06 1
569 1 7.31265 38.999 5.28003 1.0599303851e-05 1
572 1 7.65787 37.2727 3.52015 5.7267e-06 1
571 1 5.58795 38.6548 3.52015 5.3258e-06 1
574 1 5.24353 40.3819 5.28003 5.3331103851e-05 1
63 1 4.89895 42.1078 3.84479e-04 1.6310858247e-04 1
163 1 6.62527 42.4552 1.76027 2.3948752193e-04 1
164 1 8.69217 41.0695 1.76027 6.9673521893e-05 1
165 1 8.00674 44.5323 1.76027 9.5745362197e-04 1
166 1 6.96825 40.7265 3.8448e-04 1.7211782394e-05 1
167 1 8.3482 42.7986 3.84479e-04 9.0444982467e-05 1
168 1 6.28238 44.1823 3.84478e-04 9.4558118254e-04 1
61 1 4.55266 43.8294 1.76027 1.8123262197e-04 1
475 1 4.89895 42.1078 3.52015 1.631085e-04 1
575 1 6.62527 42.4552 5.28003 2.3948740384e-04 1
576 1 8.69217 41.0695 5.28003 6.9673403851e-05 1
577 1 8.00674 44.5323 5.28003 9.5745350384e-04 1
578 1 6.96825 40.7265 3.52015 1.72117e-05 1
579 1 8.3482 42.7986 3.52015 9.04449e-05 1
580 1 6.28238 44.1823 3.52015 9.455811e-04 1
473 1 4.55266 43.8294 5.28003 1.8123250384e-04 1
169 1 5.9337 45.9027 1.76027 0.0011891672 1
170 1 7.31349 47.9797 1.76027 0.0158439432 1
173 1 5.56547 47.6148 3.84477e-04 0.007463365 1
172 1 7.66427 46.2654 3.84477e-04 0.0055417596 1
175 1 5.17955 49.3363 1.76027 0.0917835914 1
581 1 5.9337 45.9027 5.28003 0.0011891671 1
582 1 7.31349 47.9797 5.28003 0.0158439431 1
585 1 5.56547 47.6148 3.52015 0.0074633649 1
584 1 7.66427 46.2654 3.52015 0.0055417595 1
587 1 5.17955 49.3363 5.28003 0.0917835913 1
77 1 4.79574 51.0334 3.84479e-04 0.4835855278 1
176 1 6.65478 51.2796 1.76027 3.4211394446 0
177 1 8.77128 50.0265 1.76027 0.4919611568 1
178 1 8.41158 51.6197 3.84479e-04 8.3909546111 0
179 1 6.94665 49.6449 3.84484e-04 0.0492063766 1
180 1 6.34483 52.8005 3.84468e-04 6.4214433848 0
74 1 4.62989 52.8017 1.76027 1.0998805848 1
489 1 4.79574 51.0334 3.52015 0.4835855277 1
588 1 6.65478 51.2796 5.28003 3.4211394445 0
589 1 8.77128 50.0265 5.28003 0.4919611567 1
590 1 8.41158 51.6197 3.52015 8.3909511778 0
591 1 6.94665 49.6449 3.52015 0.0492063765 1
592 1 6.34483 52.8005 3.52015 6.4214433848 0
486 1 4.62989 52.8017 5.28003 1.0998805847 1
181 1 4.80923 54.57 3.84483e-04 0.5085974377 1
182 1 6.68139 54.3077 1.76027 3.5583826727 0
183 1 6.97631 55.9378 3.84489e-04 0.0377340335 1
184 1 5.5923 57.9776 3.84481e-04 0.0045523737 1
185 1 7.33539 57.6142 1.76027 0.0140939816 1
186 1 5.20496 56.2574 1.76027 0.086526454 1
593 1 4.80923 54.57 3.52015 0.5085974376 1
594 1 6.68139 54.3077 5.28003 3.5583826726 0
595 1 6.97631 55.9378 3.52015 0.0377340334 1
596 1 5.5923 57.9776 3.52015 0.0045523736 1
597 1 7.33539 57.6142 5.28003 0.0140939815 1
598 1 5.20496 56.2574 5.28003 0.0865264539 1
288 1 8.46102 53.9399 3.84484e-04 9.1133111207 0
289 1 8.78699 55.5681 1.76027 0.8639593271 1
700 1 8.46102 53.9399 3.52015 9.1133111206 0
701 1 8.78699 55.5681 5.28003 0.863959327 1
187 1 7.68519 59.3337 3.8448e-04 0.0042130765 1
188 1 6.30431 61.4162 3.84478e-04 7.6297658254e-04 1
189 1 8.02789 61.0677 1.76027 6.0545342196e-04 1
190 1 5.95702 59.6937 1.76027 0.0011267532 1
193 1 4.57542 61.7678 1.76027 1.65556122e-04 1
599 1 7.68519 59.3337 3.52015 0.0042130764 1
600 1 6.30431 61.4162 3.52015 7.629765e-04 1
601 1 8.02789 61.0677 5.28003 6.0545330384e-04 1
602 1 5.95702 59.6937 5.28003 0.0011267531 1
605 1 4.57542 61.7678 5.28003 1.6555600383e-04 1
299 1 8.37 62.8007 3.84476e-04 8.1712182685e-05 1
711 1 8.37 62.8007 3.52015 8.17121e-05 1
194 1 6.99022 64.8723 3.84474e-04 1.1334482831e-05 1
195 1 6.64701 63.1439 1.76027 1.5279652207e-04 1
196 1 7.33483 66.5995 1.76027 9.3576221468e-06 1
197 1 4.92109 63.4904 3.84475e-04 1.3997658276e-04 1
198 1 5.26555 65.2167 1.76027 3.6780422136e-05 1
199 1 5.61005 66.9438 3.84474e-04 3.3613828306e-06 1
606 1 6.99022 64.8723 3.52015 1.13344e-05 1
607 1 6.64701 63.1439 5.28003 1.5279640382e-04 1
608 1 7.33483 66.5995 5.28003 9.357503806e-06 1
609 1 4.92109 63.4904 3.52015 1.399765e-04 1
610 1 5.26555 65.2167 5.28003 3.6780303808e-05 1
611 1 5.61005 66.9438 3.52015 3.3613e-06 1
303 1 8.7144 64.5291 1.76027 6.1423122125e-05 1
715 1 8.7144 64.5291 5.28003 6.142300381e-05 1
200 1 7.68012 68.3258 3.84474e-04 6.1448828306e-06 1
201 1 8.02553 70.0516 1.76027 1.4099559679e-06 1
206 1 4.57496 70.7417 1.76027 5.2745164584e-08 1
203 1 5.95497 68.6705 1.76027 9.5202210253e-07 1
205 1 6.30012 70.3969 3.84477e-04 2.743828794e-06 1
612 1 7.68012 68.3258 3.52015 6.1448e-06 1
613 1 8.02553 70.0516 5.28003 1.4098377441e-06 1
618 1 4.57496 70.7417 5.28003 5.2626992805e-08 1
615 1 5.95497 68.6705 5.28003 9.5190381372e-07 1
617 1 6.30012 70.3969 3.52015 2.7437461817e-06 1
211 1 8.37094 71.7773 3.84478e-04 2.0636684714e-07 1
623 1 8.37094 71.7773 3.52015 2.0628430752e-07 1
207 1 10.442 1.38768 3.8448e-04 6.175235633e-06 1
208 1 12.1671 1.04299 1.76027 1.4310834505e-06 1
209 1 12.5119 2.76981 3.84481e-04 4.9079823217e-06 1
210 1 10.7872 3.11404 1.76027 1.0154321826e-05 1
213 1 9.06223 3.45828 3.84482e-04 2.5600882249e-05 1
320 1 12.8563 4.49694 1.76027 5.3557521815e-05 1
619 1 10.442 1.38768 3.52015 6.1751532387e-06 1
620 1 12.1671 1.04299 5.28003 1.4309653957e-06 1
621 1 12.5119 2.76981 3.52015 4.9079e-06 1
622 1 10.7872 3.11404 5.28003 1.0154203863e-05 1
625 1 9.06223 3.45828 3.52015 2.56008e-05 1
732 1 12.8563 4.49694 5.28003 5.3557403865e-05 1
214 1 11.1316 4.84154 3.84482e-04 1.7192882249e-05 1
215 1 11.8175 8.29731 3.8448e-04 9.4364608239e-04 1
216 1 11.4746 6.5702 1.76027 2.3582372184e-04 1
217 1 9.40769 5.18452 1.76027 6.9381721804e-05 1
218 1 9.75165 6.91361 3.84481e-04 9.0232582322e-05 1
219 1 10.0931 8.64727 1.76027 9.550583219e-04 1
321 1 13.2009 6.22284 3.84481e-04 1.6253228232e-04 1
626 1 11.1316 4.84154 3.52015 1.71928e-05 1
627 1 11.8175 8.29731 3.52015 9.43646e-04 1
628 1 11.4746 6.5702 5.28003 2.3582360386e-04 1
629 1 9.40769 5.18452 5.28003 6.9381603867e-05 1
630 1 9.75165 6.91361 3.52015 9.02325e-05 1
631 1 10.0931 8.64727 5.28003 9.5505820385e-04 1
733 1 13.2009 6.22284 3.52015 1.625322e-04 1
220 1 12.5344 11.7298 3.84478e-04 0.0074641785 1
221 1 12.1662 10.0177 1.76027 0.0011835516 1
225 1 10.7864 12.0947 1.76027 0.0158377217 1
223 1 10.4356 10.3804 3.84478e-04 0.0055440649 1
224 1 9.02682 12.4617 3.84477e-04 0.0397924863 1
333 1 12.9203 13.4513 1.76027 0.0917659701 1
632 1 12.5344 11.7298 3.52015 0.0074641784 1
633 1 12.1662 10.0177 5.28003 0.0011835515 1
637 1 10.7864 12.0947 5.28003 0.0158377216 1
635 1 10.4356 10.3804 3.52015 0.0055440648 1
636 1 9.02682 12.4617 3.52015 0.0397924862 1
745 1 12.9203 13.4513 5.28003 0.09176597 1
227 1 11.1532 13.7599 3.8448e-04 0.0491780697 1
228 1 9.68828 15.7347 3.84478e-04 8.390934617 0
229 1 11.4451 15.3946 1.76027 3.4210530293 0
230 1 9.32858 14.1415 1.76027 0.4919625 1
231 1 11.755 16.9155 3.84485e-04 6.421000238 0
331 1 13.3041 15.1484 3.84479e-04 0.4835622201 1
639 1 11.1532 13.7599 3.52015 0.0491780696 1
640 1 9.68828 15.7347 3.52015 8.3909311907 0
641 1 11.4451 15.3946 5.28003 3.4210530292 0
642 1 9.32858 14.1415 5.28003 0.4919624999 1
643 1 11.755 16.9155 3.52015 6.421000238 0
743 1 13.3041 15.1484 3.52015 0.48356222 1
132 1 9.31287 19.6831 1.76027 0.863852077 1
135 1 9.00884 21.3711 3.84482e-04 0.0276234239 1
544 1 9.31287 19.6831 5.28003 0.8638520769 1
547 1 9.00884 21.3711 3.52015 0.0276234238 1
232 1 11.4185 18.4227 1.76027 3.5582257242 0
233 1 10.7645 21.7293 1.76027 0.0140536638 1
234 1 12.8949 20.3724 1.76027 0.0864574901 1
235 1 9.63884 18.0549 3.84484e-04 9.1137345135 0
236 1 11.1236 20.0528 3.84483e-04 0.0377661251 1
237 1 13.2906 18.685 3.84483e-04 0.5083437201 1
238 1 12.5076 22.0926 3.84481e-04 0.0045425501 1
644 1 11.4185 18.4227 5.28003 3.5582257241 0
645 1 10.7645 21.7293 5.28003 0.0140536637 1
646 1 12.8949 20.3724 5.28003 0.08645749 1
647 1 9.63884 18.0549 3.52015 9.1137345134 0
648 1 11.1236 20.0528 3.52015 0.037766125 1
649 1 13.2906 18.685 3.52015 0.50834372 1
650 1 12.5076 22.0926 3.52015 0.00454255 1
239 1 10.072 25.1827 1.76027 6.0668622203e-04 1
240 1 12.1428 23.8088 1.76027 0.0011274301 1
244 1 11.7955 25.5312 3.84476e-04 7.7282168269e-04 1
242 1 10.4147 23.4487 3.8448e-04 0.0042302125 1
248 1 9.72986 26.9157 3.84474e-04 8.1765582831e-05 1
651 1 10.072 25.1827 5.28003 6.0668610383e-04 1
652 1 12.1428 23.8088 5.28003 0.00112743 1
656 1 11.7955 25.5312 3.52015 7.728216e-04 1
654 1 10.4147 23.4487 3.52015 0.0042302124 1
660 1 9.72986 26.9157 3.52015 8.17655e-05 1
148 1 9.0399 30.3701 3.84472e-04 1.9943882976e-05 1
145 1 9.38546 28.6441 1.76027 6.1139322202e-05 1
560 1 9.0399 30.3701 3.52015 1.99438e-05 1
557 1 9.38546 28.6441 5.28003 6.1139203796e-05 1
245 1 11.4528 27.2589 1.76027 1.5633492216e-04 1
246 1 10.765 30.7145 1.76027 8.9398222241e-06 1
247 1 12.8343 29.3317 1.76027 3.6880122224e-05 1
249 1 13.1788 27.6055 3.84473e-04 1.319600829e-04 1
250 1 11.1096 28.9873 3.84472e-04 1.1778882976e-05 1
251 1 12.4898 31.0588 3.84472e-04 3.1900829763e-06 1
657 1 11.4528 27.2589 5.28003 1.563348038e-04 1
658 1 10.765 30.7145 5.28003 8.9397037922e-06 1
659 1 12.8343 29.3317 5.28003 3.6880003792e-05 1
661 1 13.1788 27.6055 3.52015 1.3196e-04 1
662 1 11.1096 28.9873 3.52015 1.17788e-05 1
663 1 12.4898 31.0588 3.52015 3.19e-06 1
252 1 10.0743 34.1666 1.76027 1.2233220915e-06 1
253 1 12.1449 32.7856 1.76027 1.6501221578e-06 1
256 1 11.7997 34.5119 3.84476e-04 2.356482685e-06 1
255 1 10.4197 32.4408 3.84473e-04 5.4803829035e-06 1
261 1 9.72892 35.8923 3.84477e-04 2.4168261231e-07 1
664 1 10.0743 34.1666 5.28003 1.2232038157e-06 1
665 1 12.1449 32.7856 5.28003 1.650003804e-06 1
668 1 11.7997 34.5119 3.52015 2.3564e-06 1
667 1 10.4197 32.4408 3.52015 5.4803e-06 1
673 1 9.72892 35.8923 3.52015 2.416e-07 1
161 1 9.03763 39.3433 3.8448e-04 2.3710682394e-05 1
158 1 9.38338 37.6179 1.76027 2.8555219368e-06 1
573 1 9.03763 39.3433 3.52015 2.37106e-05 1
570 1 9.38338 37.6179 5.28003 2.8554038431e-06 1
258 1 11.4546 36.238 1.76027 3.875321992e-06 1
259 1 10.7634 39.6887 1.76027 8.7632218927e-06 1
260 1 12.835 38.3096 1.76027 1.2720121915e-05 1
262 1 11.1092 37.9637 3.84479e-04 3.026182467e-06 1
263 1 13.1799 36.5832 3.84478e-04 2.1800825396e-06 1
264 1 12.4897 40.0354 3.8448e-04 2.3850082394e-05 1
670 1 11.4546 36.238 5.28003 3.8752038333e-06 1
671 1 10.7634 39.6887 5.28003 8.7631038509e-06 1
672 1 12.835 38.3096 5.28003 1.2720003847e-05 1
674 1 11.1092 37.9637 3.52015 3.0261e-06 1
675 1 13.1799 36.5832 3.52015 2.18e-06 1
676 1 12.4897 40.0354 3.52015 2.385e-05 1
265 1 10.07 43.1391 1.76027 4.2127062194e-04 1
266 1 12.1433 41.7595 1.76027 3.6620121915e-05 1
270 1 11.7951 43.4813 3.84478e-04 4.3608008254e-04 1
268 1 10.4168 41.4132 3.8448e-04 1.0476078239e-04 1
677 1 10.07 43.1391 5.28003 4.2127050384e-04 1
678 1 12.1433 41.7595 5.28003 3.6620003847e-05 1
682 1 11.7951 43.4813 3.52015 4.3608e-04 1
680 1 10.4168 41.4132 3.52015 1.047607e-04 1
171 1 9.39164 46.612 1.76027 0.0046134252 1
174 1 9.07304 48.3467 3.84476e-04 0.0398019305 1
583 1 9.39164 46.612 5.28003 0.0046134251 1
586 1 9.07304 48.3467 3.52015 0.0398019304 1
271 1 11.4475 45.2035 1.76027 0.0021648037 1
272 1 10.7963 48.6957 1.76027 0.0578137593 1
273 1 12.8219 47.2629 1.76027 0.0138787101 1
274 1 9.7258 44.8708 3.84478e-04 6.6699538254e-04 1
275 1 13.1748 45.5449 3.84477e-04 0.0017781701 1
276 1 11.1086 46.9335 3.84477e-04 0.0066618309 1
277 1 12.4553 49.0094 3.84478e-04 0.0703109301 1
683 1 11.4475 45.2035 5.28003 0.0021648036 1
684 1 10.7963 48.6957 5.28003 0.0578137592 1
685 1 12.8219 47.2629 5.28003 0.01387871 1
686 1 9.7258 44.8708 3.52015 6.669953e-04 1
687 1 13.1748 45.5449 3.52015 0.00177817 1
688 1 11.1086 46.9335 3.52015 0.0066618308 1
689 1 12.4553 49.0094 3.52015 0.07031093 1
278 1 9.9801 52.6613 1.76027 7.5724886602 0
279 1 12.0717 50.8902 1.76027 0.3504919501 1
282 1 11.8043 52.8055 3.84479e-04 2.0722723401 1
281 1 10.4882 50.5197 3.84477e-04 0.5503293369 1
690 1 9.9801 52.6613 5.28003 7.57248866 0
691 1 12.0717 50.8902 5.28003 0.35049195 1
694 1 11.8043 52.8055 3.52015 2.07227234 1
693 1 10.4882 50.5197 3.52015 0.5503293368 1
284 1 10.5058 55.1027 3.84483e-04 1.0956821988 0
285 1 12.0848 54.7163 1.76027 0.5738158401 1
286 1 12.4779 56.5962 3.84483e-04 0.0743358601 1
287 1 10.814 56.9114 1.76027 0.0517879688 1
290 1 9.09101 57.256 3.84481e-04 0.0276637091 1
696 1 10.5058 55.1027 3.52015 1.0956821987 0
697 1 12.0848 54.7163 5.28003 0.57381584 1
698 1 12.4779 56.5962 3.52015 0.07433586 1
699 1 10.814 56.9114 5.28003 0.0517879687 1
702 1 9.09101 57.256 3.52015 0.027663709 1
291 1 11.1295 58.6681 3.84481e-04 0.0063988594 1
292 1 11.818 62.1161 3.84477e-04 2.7678248261e-04 1
293 1 11.4702 60.3948 1.76027 0.0017684833 1
294 1 9.41102 58.9899 1.76027 0.0031698963 1
295 1 9.74712 60.7292 3.84479e-04 6.8369998247e-04 1
296 1 10.0924 62.4595 1.76027 3.5729902204e-04 1
397 1 12.8465 58.3351 1.76027 0.0119363301 1
398 1 13.1989 60.0511 3.84479e-04 0.0011051701 1
703 1 11.1295 58.6681 3.52015 0.0063988593 1
704 1 11.818 62.1161 3.52015 2.767824e-04 1
705 1 11.4702 60.3948 5.28003 0.0017684832 1
706 1 9.41102 58.9899 5.28003 0.0031698962 1
707 1 9.74712 60.7292 3.52015 6.836999e-04 1
708 1 10.0924 62.4595 5.28003 3.5729890383e-04 1
809 1 12.8465 58.3351 5.28003 0.01193633 1
810 1 13.1989 60.0511 3.52015 0.00110517 1
297 1 12.512 65.5629 3.84474e-04 2.2390082831e-05 1
298 1 12.1659 63.8383 1.76027 2.8020122103e-05 1
302 1 10.7858 65.9094 1.76027 4.8002221468e-06 1
300 1 10.4393 64.1849 3.84474e-04 7.1339682831e-05 1
301 1 9.05996 66.255 3.84474e-04 1.756328283e-05 1
410 1 12.8571 67.2889 1.76027 8.1701221357e-06 1
709 1 12.512 65.5629 3.52015 2.239e-05 1
710 1 12.1659 63.8383 5.28003 2.8020003814e-05 1
714 1 10.7858 65.9094 5.28003 4.800103806e-06 1
712 1 10.4393 64.1849 3.52015 7.13396e-05 1
713 1 9.05996 66.255 3.52015 1.75632e-05 1
822 1 12.8571 67.2889 5.28003 8.1700038079e-06 1
304 1 11.1315 67.6346 3.84474e-04 3.8363828305e-06 1
305 1 9.75117 69.706 3.84476e-04 3.9248268503e-07 1
306 1 11.4768 69.3605 1.76027 2.7088220694e-06 1
307 1 9.40567 67.9804 1.76027 1.4093221246e-06 1
308 1 11.8219 71.0866 3.84478e-04 1.7559561989e-06 1
309 1 10.0966 71.4318 1.76027 1.7726046366e-06 1
408 1 13.202 69.0153 3.84475e-04 1.3700827579e-06 1
716 1 11.1315 67.6346 3.52015 3.8362999999e-06 1
717 1 9.75117 69.706 3.52015 3.9239999999e-07 1
718 1 11.4768 69.3605 5.28003 2.7087038196e-06 1
719 1 9.40567 67.9804 5.28003 1.4092038098e-06 1
720 1 11.8219 71.0866 3.52015 1.7558736593e-06 1
721 1 10.0966 71.4318 5.28003 1.7724865038e-06 1
820 1 13.202 69.0153 3.52015 1.37e-06 1
6 1 17.6886 1.73288 1.76027 3.1762560722e-06 1
418 1 17.6886 1.73288 5.28003 3.1761380564e-06 1
310 1 13.8921 0.69823 3.84479e-04 2.1537759355e-06 1
311 1 15.6174 0.352984 1.76027 3.6641136625e-06 1
312 1 15.9627 2.07873 3.84481e-04 3.9854205866e-06 1
313 1 14.5822 4.15046 3.84482e-04 2.6419982249e-05 1
314 1 16.3086 3.80375 1.76027 8.5616955004e-06 1
315 1 14.237 2.42466 1.76027 1.2911937848e-05 1
722 1 13.8921 0.69823 3.52015 2.1536934686e-06 1
723 1 15.6174 0.352984 5.28003 3.6639955687e-06 1